     224
 Particles+Wannier centers. Iteration:1_1500
  O         1.1464179883        0.1594076241        2.5656154255
  H         1.1734427737        1.0822923831        2.2033586806
  H         0.5126449327       -0.3152418733        1.8950440025
  O         0.8028174320       -0.1575086047       -4.5779067797
  H         1.0165999974       -0.4746826493        4.5958134204
  H         1.0443300390        0.8699039368       -4.5727258117
  O        -4.2716042217        4.4981718327       -4.6674907629
  H        -4.6649484863        4.1175185768        4.6274510739
  H        -4.1210095817       -4.6668573666       -4.8209827724
  O        -3.5580691473       -0.6726101068        1.4075655648
  H        -3.1127652716        0.1452864643        1.0237354689
  H        -3.9485254748       -0.2986907625        2.2819584331
  O         0.6944537678        2.6303101104       -4.5041023373
  H         1.4695656973        3.2930025272       -4.5786227011
  H         0.0514912631        2.7470752266        4.8699802260
  O         0.3334671885       -2.8708509497        4.4037959055
  H        -0.3043327899       -2.2726566871        3.8463277292
  H         0.0790264141       -3.8299682232        4.2911413254
  O        -3.7052786181       -4.0305916642        1.7447604270
  H        -4.5392729791       -4.1691907540        2.3394420973
  H        -3.8564369452       -3.1824514902        1.3146949406
  O         0.2236608345        0.4746329391       -0.8627730473
  H         1.2020943926        0.6097339207       -0.9858769231
  H         0.0855543075       -0.3773928789       -1.4016961281
  O        -0.7484402298        4.4533323817        4.0122942467
  H        -1.0303810642        4.1119030252        3.1548956849
  H        -1.6021292261        4.6158637246        4.4378147126
  O         2.7795342962       -3.2314310202       -4.9858356881
  H         1.8222804057       -3.0208428568        4.9592577035
  H         3.1332115014       -2.4929164208       -4.3609729619
  O        -1.1614877734       -1.9861198792        2.2127777320
  H        -2.1080071635       -1.5811965374        2.0513810396
  H        -0.8290130997       -2.5532617316        1.4886549041
  O         2.1664993436       -2.8118797478        0.4515795766
  H         1.9231852841       -1.8520021118        0.3041776244
  H         2.9363241098       -2.7712643863        1.0806204726
  O        -1.3703726396        1.2003921387        4.2109275900
  H        -1.0277584639        0.9843507765        3.3193118146
  H        -0.7600892462        0.7291636872        4.8352049756
  O        -3.0711276306        0.2856167913       -3.4057052674
  H        -3.8406014249        0.7363502972       -3.0258897881
  H        -2.4794309236        0.9951461510       -3.5891564184
  O        -4.5215576616        0.7343024947        3.8080579509
  H        -3.6493393425        1.0708755716        4.0749584618
  H        -5.0268944862        1.5136686750        3.4969570695
  O        -3.4198407390       -2.3930319704       -4.4297027965
  H        -2.9505676463       -2.4506791728        4.8437992259
  H        -3.3709504758       -1.4656492478       -4.0699524656
  O        -1.7524703241        1.4434807835        1.1276429908
  H        -1.6981245030        2.4323500179        1.1434720211
  H        -1.0788020341        1.2116066317        0.5007771831
  O         2.0041102597        2.3680497801        1.3682838152
  H         2.7014290793        1.7872054873        0.9568248259
  H         1.5302544910        2.7861016561        0.5962102761
  O        -4.5535256138        3.1316625466       -2.2855670151
  H        -3.5951423430        3.1106506890       -2.1498001589
  H        -4.6875118808        3.6574854797       -3.1073864362
  O         3.9182995464       -0.6480369697       -3.9535013671
  H         3.1506590039       -0.0610609963       -3.8938638389
  H         4.3746761569       -0.3460244915       -4.8110102634
  O        -0.1431965384       -3.9528368199        0.2687040685
  H        -0.3863819852       -4.1181215148       -0.6578079097
  H         0.8382333616       -4.0042010543        0.2807101932
  O        -2.8457901958       -3.3819907871       -1.7562559056
  H        -3.0047277921       -3.2271182589       -2.7345876856
  H        -3.2186186303       -4.2345734675       -1.5983829276
  O         4.9289485411       -1.7949085397       -0.7255806550
  H        -4.6958345307       -1.8007634504        0.1115775675
  H        -4.6119171172       -2.4108775247       -1.2377605370
  O        -1.2216890331        2.4048484218       -2.4639342041
  H        -0.8672736637        1.6194238854       -1.9795997830
  H        -0.6670262677        2.4151856124       -3.2750019140
  O        -0.1154235379       -1.9628184865       -2.3092298947
  H        -0.1073309382       -1.8004197232       -3.2735300365
  H        -1.0489583419       -2.2191845566       -2.1553119108
  O         0.9543675149        3.6993011440       -0.8012754632
  H         1.7102352686        4.2047539572       -1.1228256974
  H         0.2459093978        3.4994055738       -1.4712601011
  O         3.8404181799        3.1801172697        3.4377273639
  H         3.4968273720        3.3375935723        4.3534134501
  H         3.0580586535        3.1912231430        2.8535594475
  O         3.3417760244       -4.7508652330       -1.6203698127
  H         3.8675981205        4.7132682237       -0.9890215574
  H         3.1795676302       -4.0039326044       -1.0689930835
  O         3.8943205682       -2.6093937373        2.6572428944
  H         3.8930551603       -1.6888462682        2.7433134224
  H         3.5723305139       -2.8996635663        3.5585135400
  O         3.7118419281        0.9977614134       -1.3264654646
  H         4.1386299073        0.1052836016       -1.5380217429
  H         4.4600739294        1.6208622639       -1.5567558287
  O         2.7586858229        4.3175989720       -4.3801920834
  H         2.8230404919        4.2363402992       -3.4041976326
  H         2.9662481827       -4.8257740539       -4.5104598923
  O        -1.4933133556        4.0593796308        1.3890295573
  H        -0.7372847723        4.5128496183        0.9671083450
  H        -2.1695269370        4.7741392026        1.4047556774
  X        -3.2694495764       -2.5907441247       -4.2082497542
  X        -4.2102201671        4.9969009290       -4.7626791669
  X        -3.7093979315       -2.4524604242       -4.4961823368
  X        -2.9285202043       -3.3208651554       -2.2561682448
  X        -3.1575388739       -2.4060259066       -4.8698060491
  X        -3.3836304545       -1.9215674595       -4.2696056499
  X        -4.4663163634        4.4506220583       -4.4117062909
  X        -3.9916067418        4.3859386440       -4.6581929664
  X        -3.0403122714       -3.8497069663       -1.6829739259
  X        -3.0368224187       -3.1827537573       -1.6097332065
  X        -4.4826882469        4.3169808838        5.0025412606
  X        -2.5379085453       -3.3871747133       -1.7081740664
  X        -4.6150746884        3.3942470717       -2.7056349454
  X         2.9459424318       -2.8652828739       -4.6633570761
  X        -3.1608258356        0.1294213774       -3.6720820828
  X        -4.8778815560       -2.1233917808       -0.9968100753
  X        -3.4664590978       -3.9972985962        1.9281503658
  X        -4.0424180285        3.1317067842       -2.2253995686
  X        -4.6744044237        3.2863389326       -2.0486128778
  X         2.8175872449       -3.5427805964       -4.8422256264
  X         3.5133393180       -4.6898035188       -1.8573786446
  X         2.9355265553       -3.1761057020        4.8161147273
  X        -3.4796762571        0.5325040905       -3.2097478625
  X        -3.7986533735       -3.5778540880        1.5184084948
  X        -4.1379212407       -4.0967896944        2.0475094195
  X         2.8548803651        4.7840702579       -4.4447790094
  X        -2.9501545247        0.1313840209       -3.1828670388
  X         3.8018728975       -0.9519172148       -4.0055629471
  X        -3.7022574676       -4.2534545035        1.5282190443
  X        -2.7639360776        0.6655041588       -3.5121531075
  X        -4.6399767243        2.8281975983       -2.3316726659
  X         2.3107508388       -3.1267588284       -5.0439731301
  X        -0.6107331021       -2.0941093738       -2.2363425864
  X        -1.2121964635        4.5392085748        4.2350770068
  X         3.0549960258       -4.9042492034       -1.6514187444
  X         2.9871248295        4.1273906263       -4.5228799341
  X         4.1061659984       -0.5801290763       -3.7219024036
  X         4.6538871478       -1.9234386748       -0.6848300389
  X         3.2647100636       -4.3585387693       -1.3300489144
  X         2.7979554602        4.2698166174       -3.8698433193
  X         0.1913920977       -3.3568818524        4.3280056250
  X         4.1408299595       -0.4890039051       -4.3998569326
  X        -4.9183054881       -1.8137374675       -0.2750386015
  X        -0.1214391143       -1.8820131334       -2.8136357053
  X         3.7293404462       -2.7507719323        3.1014881722
  X         3.6143438093        5.0289246337       -1.2848090586
  X         0.0557876805       -2.2025456497       -2.2479486109
  X         0.2785695081       -2.8164457348        4.7013209577
  X         2.4369947754        4.2423011504       -4.4547777320
  X         4.9670902118       -1.5114508479       -0.8416006239
  X         0.6483152198       -2.8392281287        4.3214903039
  X         3.5124104897       -0.3307424148       -3.9324901854
  X        -0.6042545713        4.7418661539        3.9811668572
  X         4.1942250708       -2.7008042349        2.6292834960
  X        -4.0734916981        0.9241272377        3.9465688760
  X        -0.6166136076        4.2182736037        4.1695060716
  X        -1.5311379931        2.3659313681       -2.5326426263
  X         0.0195362159       -2.5840141765        4.1264789080
  X         3.6779279502       -2.6818276395        2.4191338790
  X        -0.0735080666       -1.6618675552       -2.1555579605
  X        -4.6706243508        0.6166822919        4.0589987135
  X        -4.4647062411        0.5428186956        3.5433003665
  X        -1.1480139558       -2.1448129709        2.5032429855
  X        -1.1182685311        2.6560891651       -2.3005475159
  X        -0.8955340253        4.2848996812        3.5732697356
  X        -0.9496201105        2.3947659594       -2.8859658364
  X        -0.2636782328       -4.0343044284       -0.2289575043
  X        -3.3037045440       -0.8713009670        1.5084290252
  X         4.0241277566        3.4278381553        3.3814514780
  X         3.8951372954       -2.1057459206        2.7098217805
  X        -1.8447931858        4.4222679163        1.3813353332
  X        -4.7704855395        1.1454571648        3.6480553342
  X        -3.7585201288       -0.4831629707        1.8434260882
  X        -1.6344805044       -1.8164766036        2.1162765608
  X        -1.3064743191        1.5029142821        4.2518831317
  X        -0.2386731313       -3.6543736819        0.3616437457
  X        -3.7907358009       -0.7962439076        1.2230539358
  X        -1.0233143962       -2.2832557684        1.8316603001
  X         0.5237032984        2.6848347093       -4.2320723077
  X         3.6535978650        3.2483039731        3.9027164815
  X        -0.2555900775       -4.2178635084        0.4289530060
  X        -1.0443384179        1.9943703332       -2.2251344293
  X         0.4819542094       -0.1432047387       -4.5782139469
  X         3.9331093528        0.5403209102       -1.4366275464
  X         3.9704116302        2.8778782854        3.4241621871
  X         1.0618219546        2.9584349479       -4.5547458318
  X        -1.4134427415        4.0274280005        1.7023543211
  X        -3.3501292806       -0.2603255273        1.2078049488
  X        -1.6740697980        1.0955045916        4.2379497589
  X         0.9600399985       -0.3127571892       -4.3613240988
  X         2.2721638579       -2.9212244339        0.1722614248
  X         0.3536999996       -3.9873244571        0.2607258305
  X        -1.0614271851        0.9483450862        4.5280372700
  X         0.3830514008        2.7015016554       -4.8883793722
  X        -1.1094766251        4.2795598155        1.1695718801
  X         4.0998321492        1.3154781083       -1.4465185090
  X        -0.9787557760       -1.7402734161        2.1950735134
  X         0.9258914435       -0.3137672653        5.0443006878
  X         2.5565256826       -2.7837468299        0.7663861429
  X         0.8191672507        2.3090447601       -4.5337637354
  X         1.9206872813       -2.9639553969        0.5875655705
  X         3.4762267622        1.0440295134       -1.5243220430
  X        -1.5915315019        3.7814982372        1.2259270527
  X         0.8280538497        3.8768661129       -0.6010634253
  X         0.9400433542        0.3393815187       -4.5871843651
  X         3.4301475670        3.1959112022        3.1481275063
  X        -1.1856459511        1.0761032012        3.7512795897
  X         1.3378861613        3.9569162378       -1.0005249326
  X         2.0425504486       -2.3031057257        0.3824978791
  X         0.6149431065        3.6107598780       -1.1670742901
  X         3.6715241716        1.0118944007       -1.0130358344
  X        -2.0468543597        1.3305858850        1.0208009678
  X         0.1566851797        0.0492318034       -1.1233637019
  X        -1.7326151087        1.9343689736        1.1218691105
  X         1.0682704510        3.4186119762       -0.6806517795
  X        -1.6474528610        1.3504263252        1.4049440255
  X         0.0696937341        0.7145200083       -1.0232938620
  X         0.1641298436        0.4262596605       -0.5555810220
  X        -1.3968092669        1.3264024803        0.7911578096
  X         0.7367105713        0.5430055474       -0.9263631169
  X         1.4240845895        0.0491408582        2.5163282724
  X         1.0081675103        0.1448616238        2.8566745391
  X         0.8192938342       -0.0786223945        2.2138092548
  X         2.1544620104        2.5927390537        1.5409659886
  X         1.7758386040        2.5722646694        0.9782539058
  X         2.3670201110        2.0700194758        1.1440041121
  X         1.1408852938        0.6287698357        2.3913141134
  X         1.7943548044        2.1620709927        1.5185931592
