     224
 Particles+Wannier centers. Iteration:1_3100
  O         1.2144218485        0.3688286588        2.8049455369
  H         1.8913065338        0.7649195465        2.1489046532
  H         0.3486230802        0.8068056797        2.7670557315
  O         1.4008960906        0.6316986663       -4.5165660516
  H         1.3784026483        0.4997974317        4.6496384176
  H         1.0056691421        1.5181246858       -4.3962793168
  O        -3.3458017885       -4.3419119700        4.9300416549
  H        -3.8536479814       -4.2832849324        4.0593280284
  H        -3.5690090823       -3.4761392691       -4.7511940090
  O        -4.5834962249       -0.5156364859        2.8085631323
  H        -3.6401226281       -0.6510233799        2.6278589550
  H        -4.6437603415        0.1023446418        3.5439746346
  O         0.1771591365        3.0636772643       -4.1890016205
  H         0.8209435959        3.8165372868       -3.9825021347
  H        -0.3732872713        3.5217076475       -4.8920491069
  O         0.2252473105       -2.6850502399        3.9780450329
  H        -0.5712785291       -2.3706442887        3.4958524635
  H         0.1747533876       -3.6674967051        3.9837982672
  O        -3.5521770356       -3.3971068050        1.1623888502
  H        -4.4258188176       -3.5268843355        1.5842997239
  H        -3.6746342162       -3.4135158114        0.1718708244
  O        -0.1399510319       -0.9758213273       -0.4245941161
  H        -0.2303009943       -0.5664998648       -1.3062663043
  H         0.7947441884       -0.8873048879       -0.1763571737
  O        -0.7337612392        4.9324047660        4.0105756421
  H        -0.9010081042        4.7263152734        3.0453501387
  H        -1.5743534224       -4.7726273431        4.3013628394
  O         2.8202433644       -2.5364238265       -4.9898976174
  H         1.9802572577       -2.4590780784        4.6465804465
  H         3.0638268681       -1.6979263341       -4.4183391403
  O        -1.8132804002       -1.5306226077        2.4149689037
  H        -2.3751542272       -2.2240292060        2.0745437608
  H        -1.4587836522       -1.0776171246        1.6133842280
  O         2.3644830781       -1.9493625942        0.6187787878
  H         3.2221340532       -1.4244571583        0.6687694597
  H         1.7907222497       -1.5103581345        1.2729604223
  O        -1.9248198503        0.9574762082        4.1186397420
  H        -1.9588487386        0.0484582280        4.4963146583
  H        -1.6903677962        0.8633034122        3.1387435081
  O        -3.3062903890        0.9626051666       -2.6854387097
  H        -3.6178861202        1.5495880957       -3.4436735919
  H        -3.3093452861        1.5934517959       -1.9604496119
  O        -4.7188866052        1.4666802235        4.5954962767
  H        -3.7433498256        1.5806880909        4.3829161445
  H         4.9073572063        2.3138298468        4.2806804553
  O        -3.0625684302       -1.8364301138       -3.6580547510
  H        -2.0906368052       -1.6979982625       -3.7490767873
  H        -3.3091524289       -0.9842870786       -3.2183514733
  O        -1.5528598007        1.7140049041        1.2438688291
  H        -1.3549350332        2.6387585010        1.0669030153
  H        -1.2850551933        1.3266440008        0.3993465622
  O         3.4647710984        1.3513945386        1.5887618198
  H         4.1360714296        0.7145089679        1.9351939501
  H         3.8337600382        1.7225962608        0.8193900304
  O        -3.7896878485        4.1929836620       -2.8735083132
  H        -2.9066354424        3.8628882544       -2.5738353241
  H        -3.8099216270        4.5620817090       -3.8062393144
  O         3.9051383647       -0.0440871471       -3.7139717713
  H         3.0751922068        0.3608827470       -4.0732552325
  H         4.5906813455        0.4741527914       -4.2312924741
  O        -0.1261960203       -3.6466700550       -0.2885614570
  H         0.5905990704       -3.8962521670       -0.8652410708
  H        -0.2695902608       -2.6484416960       -0.5085970337
  O        -3.6847590077       -3.6345510804       -1.5065905479
  H        -3.3596329066       -3.1128933605       -2.2785667855
  H        -4.0130036407       -4.5151152832       -1.8745060962
  O         5.0136854762       -0.8937309168       -0.4223378507
  H        -4.8912472797       -1.0611362442        0.5533351052
  H        -4.5613952876       -1.5305882753       -0.9197446906
  O        -1.3361215551        3.3968005985       -1.8142256949
  H        -0.7093084543        3.9102558459       -1.1997222870
  H        -0.7948152523        3.3428531355       -2.6871940371
  O        -0.3578180477       -1.6618382832       -3.5286886902
  H        -0.1366666929       -2.1452420072       -4.3861374584
  H         0.1423554126       -0.8091649696       -3.7033076093
  O         1.3253050840        3.0618863258       -0.6860054422
  H         2.0012909106        2.4957980428       -0.9939202885
  H         1.7196796855        3.9616194609       -0.5141528101
  O         3.6616814324        3.4639315381        4.1749775486
  H         3.0709228977        3.6080562213        4.9900791621
  H         3.0390672264        3.0932996589        3.4978553817
  O         2.7756723377       -4.5330825485       -0.4903053654
  H         2.5456772166       -3.6307621896       -0.0739075570
  H         3.7889266830       -4.5021378572       -0.3899079465
  O         4.6353420598       -3.2602682788        3.1391404888
  H         4.6935520135       -2.2514418923        3.1166673973
  H         4.0291080964       -3.5211229970        3.8465378768
  O         4.0103455327        1.8310881613       -1.3637062008
  H         4.1496170245        1.0278537195       -1.8530651386
  H         4.4445047463        2.5616713093       -1.9066554089
  O         2.4021184074       -5.0155313778       -3.7324380283
  H         2.5581994862       -4.7607469552       -2.8286831332
  H         2.5477262549       -4.1668444526       -4.1877152566
  O        -1.5156820981        4.7513890896        1.3941813459
  H        -0.8716820367       -4.7210762803        0.9142752814
  H        -2.3454734098       -4.8304298928        1.4520993396
  X        -3.4634864968       -3.8952133560       -4.9618868396
  X        -3.4758192695       -4.5824752890       -4.9873446737
  X        -3.0237707237       -4.3459740435        4.8581842509
  X        -3.1967613451       -1.8611803487       -3.9421110647
  X        -3.8568793642       -4.0636292923       -1.6909171889
  X        -3.7728413155        4.3662068959       -3.3498132961
  X        -3.6036239428       -4.3136549900        4.4819286758
  X        -3.5209418015       -3.3792006042       -1.9049350576
  X        -3.1034382896       -2.0801672043       -3.4376637621
  X        -3.4534726874       -3.6895551887       -1.3086271447
  X        -3.8614361040        4.4527725420       -2.6733920423
  X        -2.5764753707       -1.7649465752       -3.7106088804
  X        -3.9828635692        3.9458774976       -2.8645284758
  X        -3.1953183353       -1.3989112769       -3.4350517704
  X        -3.9287656130       -3.4692617090       -1.3741579141
  X        -3.3340065590        4.0353408798       -2.7590056366
  X         4.9341046927       -3.3626612576        3.2311616696
  X         2.4727792047       -4.5850320030       -3.9650977089
  X         2.7767204096       -2.7953836353       -4.7863648374
  X         4.3130143210       -3.3894784106        3.4987552213
  X        -3.6288147880       -3.3977418175        0.6775138974
  X         2.6215698687        4.8745290844       -3.8245996646
  X        -4.0132723026       -3.4614837419        1.3588915860
  X         4.6476432916       -2.7489078924        3.1447909281
  X        -0.6918849760       -1.5957482711       -3.5553855056
  X         2.4872065977       -4.8813336499       -3.2512072205
  X        -1.1707662122       -4.9632669742        4.1501381672
  X        -3.3786716576       -3.6615118764        1.2377611418
  X        -3.4707363258        1.2713484934       -3.0785041166
  X        -3.4359479321       -3.1063719519        1.2611622164
  X         3.0423724416       -2.5709535558        4.8920209691
  X        -3.5150183299        0.7312892839       -2.6447048012
  X         2.9113692549       -2.1143593970       -4.7135253892
  X         4.5432012251       -3.3541646989        2.8480174468
  X         2.0877205875        5.0002896031       -3.7572182533
  X        -0.2401318948       -1.9081980249       -3.9513562512
  X        -3.0154017868        0.9006132144       -2.7420935652
  X        -0.2426689303       -1.7980150305       -3.2833538397
  X         3.8938712971       -0.3593821173       -3.8182596280
  X        -4.2246115993        1.5400177403        4.4937613566
  X        -1.6270930506        3.5659517040       -1.8834102776
  X        -3.3180490299        1.2955918695       -2.2970794925
  X         2.3829147822       -2.4680997971        4.8801886685
  X        -0.5021999363       -4.9270245791        4.0229982918
  X        -4.7983339638       -1.2416857002       -0.6713396926
  X        -0.6900756858        4.6506354558        4.1850821372
  X         4.2580573272        0.2109082554       -3.9773370160
  X         0.1974027809       -3.1799075019        3.9680575372
  X        -4.8044274064        1.2066596499        4.4063844723
  X        -4.7532349946        1.4336121668        4.9195642140
  X         3.9282265375        0.0325912502       -3.4046819950
  X        -0.1085850058       -1.2187261378       -3.6156759764
  X         3.7333591519        3.7393049764        4.0830643260
  X         3.3067563622       -4.5195177110       -0.4349005476
  X        -4.7037714526       -0.8055049341        2.8946930050
  X        -1.0640747550        3.3809289318       -2.2466041586
  X         0.1747522463       -2.5987006794        4.3004431285
  X        -1.9424516532        5.0156036594        1.4179873133
  X        -0.1813749739       -2.5370707746        3.7272480418
  X        -0.8200316856        4.8273382743        3.5350108366
  X        -2.0938410259       -1.8894508531        2.2311848406
  X        -4.9337539633        1.8774650676        4.4350032101
  X        -1.0206887165        3.6777493609       -1.5033636106
  X        -0.0972198367        3.2808720691       -4.5496529346
  X        -0.3731271096       -3.8122329747       -0.3720239813
  X         3.4905496873        0.1682588726       -3.8968266180
  X         3.3557824230        3.5161969568        4.5909946746
  X         4.7168408969       -0.9779829644       -0.4476357373
  X         2.7202766947       -4.5095903553       -0.8028911149
  X        -4.9714720921       -0.9994669383        0.0925049869
  X         3.9024094530        3.2244304804        4.2346371592
  X        -1.6981391295        1.1025640484        4.2516740176
  X        -4.6006554261       -0.2098635973        3.1840561634
  X         0.5101912193        3.4427829600       -4.0931386530
  X        -4.0894348642       -0.5729017829        2.7209787280
  X         0.2636898141       -3.7772685996       -0.5991698198
  X         0.4946274174       -2.5867328189        3.8469731953
  X        -2.0111100741       -1.3216305368        2.5451806621
  X        -1.4013289965        4.7260065092        1.7185773763
  X         2.6582820214       -4.0866410008       -0.2816819124
  X        -0.0135894868        3.0544635492       -3.9199962631
  X        -1.3475674800        3.1122779871       -1.7036898545
  X        -1.9393725496        0.4681515457        4.3021468006
  X        -0.1954055719       -3.1641764091       -0.3995365340
  X        -1.5689191681       -1.6571855064        2.5893845613
  X         4.2419782145        2.2063951417       -1.6572078022
  X        -1.2014494065       -5.0336466623        1.1588891665
  X        -4.9889292532       -0.6175337387       -0.4780975679
  X        -4.7174523972       -0.3714035216        2.5503063177
  X         2.6542879059       -4.7793794592       -0.3227769571
  X        -2.2350609144        1.0711356607        4.1289473594
  X        -0.0332638532       -3.6785053374        0.0134535042
  X         0.3386939882        2.7926763377       -4.2948234638
  X        -1.5534142973        4.4838648836        1.2271055721
  X         4.0932982263        1.4169034338       -1.6237462290
  X         3.3260252855        3.2683458507        3.8271299421
  X        -1.6299178869       -1.3051703794        1.9894221033
  X         4.1539079591        1.8212348948       -1.0820969771
  X        -1.8030295849        0.8865219701        3.6178150552
  X         1.7243302053        0.6360024837       -4.4285278712
  X         1.2028071660        0.4122456604       -4.3781990984
  X        -0.1746588157       -0.7536616039       -0.8869227100
  X         3.6972734699        1.8924939617       -1.3729559738
  X         2.4080314810       -2.2625997654        0.6743793375
  X         1.2082433857        1.0828236050       -4.4624261662
  X         1.3831423586        0.5703543534       -5.0035054164
  X        -0.1858438229       -1.3061145479       -0.4674903664
  X         2.2427571632       -1.8598448862        0.3493809148
  X         2.8069258273       -1.6811054456        0.6646648568
  X        -0.3176992806       -0.8202898631       -0.2174763145
  X         1.5461242376        3.5196543917       -0.6071282091
  X        -1.8530626517        1.6883183512        1.2578114261
  X         2.0666259857       -1.7223855589        0.9713948250
  X         1.1159697904        3.1004434532       -0.9084341585
  X         0.3484327575       -0.9149218364       -0.3068640668
  X        -1.4423762226        2.1946054218        1.1551650059
  X         1.6967404321        2.7754826667       -0.8542119081
  X        -1.4062743365        1.5043083373        0.7952819654
  X         3.8160176174        1.0179568551        1.7531620144
  X        -1.3660150121        1.5949376896        1.4858313600
  X         3.6622686947        1.5348375524        1.1778120029
  X         1.2424695575        2.9575152632       -0.4160689147
  X         3.4553152833        1.5712284652        1.7949569974
  X         1.3202614837        0.4176264407        3.1089993635
  X         3.1792393867        1.1870157719        1.5326198666
  X         1.1673976754        0.0787820956        2.7087957986
  X         0.7603259331        0.6163470302        2.7635761951
  X         1.5244643496        0.5881092885        2.4744728976
