     224
 Particles+Wannier centers. Iteration:1_2700
  O         1.2869792201       -0.0458852457        2.6142891652
  H         2.0010650772        0.6078484412        2.3330651664
  H         0.5539428755       -0.0620972652        1.9627877653
  O         1.1072969490        0.5193601240       -4.6514904329
  H         1.0882426807        0.0864406841        4.5584652505
  H         0.8146909633        1.4737507819       -4.8995257523
  O        -3.8006960229       -4.5305742544       -4.9643708839
  H        -4.4810872131       -4.7483403738        4.4462739428
  H        -3.8048818509       -3.5425720109       -4.9867728256
  O        -4.1413257111       -0.5042371001        2.2185931431
  H        -3.1959347913       -0.7139941835        1.9086280721
  H        -4.0059278720        0.0856127860        2.9696924880
  O         0.4873745071        3.0038032357       -4.4662765695
  H         1.2678794846        3.5843936219       -4.2341338611
  H        -0.1948004398        3.5181258022       -4.9373597424
  O         0.2476682448       -3.0862824865        4.0612470693
  H         0.0888776283       -2.6680017272        3.1739927934
  H         0.0701037002       -4.0500356996        4.0196376205
  O        -3.5502220214       -3.9043600831        1.1635036600
  H        -4.2656942346       -3.5795517232        1.7297961990
  H        -3.8533479727       -3.9553696731        0.2217371496
  O         0.4559621871        0.1656971160       -0.3045840508
  H         1.0752455349        0.9326705947       -0.2714362647
  H         1.0652227785       -0.5828264733       -0.1468179752
  O        -1.1331782329        4.7800270978        4.2132432873
  H        -1.5005758898        4.6039782018        3.3416471305
  H        -1.8911888907       -4.9422483628        4.7199152482
  O         2.9534766488       -2.8288866986       -4.9720583682
  H         2.0581985622       -2.6119286630        4.7093336907
  H         3.3021874476       -1.9602663296       -4.5733440186
  O        -1.5356684129       -2.0271573978        1.8115431207
  H        -2.1347603932       -2.7513891475        1.4452722662
  H        -1.0547701378       -1.7635780929        0.9803986732
  O         1.7368309974       -2.2769972159        0.6924056289
  H         2.5114356036       -2.1958629709        0.0905821993
  H         2.2078247707       -2.0639294737        1.4966886830
  O        -2.0394146913        1.3077477972        4.0955147456
  H        -1.5205727312        0.8830351468        4.7933877998
  H        -1.5134375962        1.1595694417        3.2307502756
  O        -3.5574789394        1.0683250221       -2.9337541479
  H        -4.0631903352        1.8682405332       -3.2099286145
  H        -2.6322027991        1.4847671607       -2.8176058781
  O        -4.6851695703        1.4081982789        4.3598519685
  H        -3.6700602800        1.4310668904        4.2808088462
  H        -4.9246121607        2.3348444600        4.1337953129
  O        -3.5499041222       -1.7761866303       -3.9523233603
  H        -2.6222404335       -1.6666521987       -3.7980405846
  H        -4.0234723051       -1.0266074083       -3.5897525321
  O        -1.9742216345        1.2388356536        1.2412678590
  H        -1.7309261325        2.1531720169        1.3644063057
  H        -1.6601214107        0.9842981232        0.3512367750
  O         3.4489842529        1.6983370258        1.6364668727
  H         4.3123676753        1.5773011665        2.0733344271
  H         3.6695532240        1.8986648267        0.7486011218
  O        -3.8221980983        3.9897288189       -2.7267401079
  H        -2.8995575575        3.8287569403       -2.4704427081
  H        -3.7691901132        4.5829771012       -3.5594178169
  O         3.7334681004       -0.2638688116       -4.0151236708
  H         2.8704690405        0.2158642169       -4.1788040269
  H         4.4084623529        0.1177731083       -4.5740832827
  O         0.0801678630       -4.4944923735       -0.3782889042
  H         0.3316011091       -4.5959495804       -1.2887107147
  H         0.6627185198       -3.8045572692        0.0365201428
  O        -4.3981669197       -3.7029422439       -1.5292634230
  H        -4.3213030327       -2.9677050061       -2.1692166645
  H        -4.4169556392       -4.5773516037       -1.9920008531
  O         4.5421629504       -1.3212683497       -0.2065851034
  H         4.7829403930       -0.9958469661        0.6599934115
  H         4.8633781700       -2.2966353283       -0.2620586896
  O        -1.1817955721        3.0217108011       -2.0859512228
  H        -0.5066183641        2.6933973700       -1.4608386400
  H        -0.6393221379        3.1824167778       -2.8553583130
  O        -0.6328792521       -1.5373267605       -3.9362069715
  H        -0.2980223614       -2.0611346820       -4.7599128086
  H        -0.0820654072       -0.6906648196       -3.9573115291
  O         1.5077040115        2.6620694283       -0.8303118868
  H         2.3750120408        2.7286285715       -1.2350517688
  H         1.3346820599        3.5751791132       -0.5619965322
  O         4.4771264591        4.0793582697        3.6874140742
  H         3.8126302938        4.0972839670        4.3954149450
  H         3.9325160088        3.9028841339        2.9337196497
  O         2.9991224128       -4.6938924933       -0.5906994402
  H         2.6909310276       -4.7062669699        0.3266499864
  H         3.8616422628       -4.3293453518       -0.6538359825
  O         4.5634265014       -2.8376488418        2.8528531105
  H        -4.9645659103       -2.0120658660        2.8820735694
  H         4.0715267704       -2.8740419537        3.6126225145
  O         4.3721814393        1.7762860139       -1.0724087139
  H         4.3311310483        0.8075173266       -1.1250393186
  H        -4.8285673586        2.1408077632       -1.1738884609
  O         2.8350079819        4.5825685942       -3.7538683090
  H         3.2907650817        4.5299917328       -2.9241570148
  H         2.8197286748       -4.5498852521       -3.9102060781
  O        -1.3884174764        4.0646446462        1.5569175998
  H        -0.7495261151        4.4177086290        0.8775118309
  H        -2.1263659595        4.6729982962        1.3985954573
  X        -3.8093781466       -4.0243426090       -4.9716328126
  X        -3.8925764455       -4.6476933182       -4.6598290402
  X        -3.5103360900       -4.6188990475        5.0248892957
  X        -3.6413215506       -2.0288237505       -3.7750098512
  X        -4.1472280248       -4.6402006968        4.7880874944
  X        -4.3584348940       -3.3350226623       -1.8703411019
  X        -3.7830878809        4.2738691364       -3.1390186300
  X        -3.5994976967       -1.7976520706       -4.2580146779
  X        -3.0715812265       -1.7005381637       -3.8629086177
  X        -4.4165144272       -4.1292921223       -1.7803489375
  X        -4.1480163580       -3.7068509248       -1.3361404262
  X        -3.7868439260       -1.3745123610       -3.7630989123
  X        -3.9598391117        4.1860897126       -2.4964084716
  X        -4.6847124569       -3.6672663025       -1.3759652110
  X        -3.3391891491        3.9194152914       -2.6021442428
  X        -3.9491174927        3.7127511679       -2.8001937178
  X         2.9058033939       -3.0578062262       -4.7404993724
  X        -1.5209825514        4.9773507613        4.4728080574
  X         2.8234279028       -5.0204901752       -3.8214647903
  X        -3.7258634710       -3.9225845256        0.6904298194
  X         4.3215610737       -2.8561219778        3.2637446615
  X        -0.9529248663       -1.4672373966       -3.9821199825
  X         3.1512482157       -2.8932216670        4.8749008936
  X         3.1113731295       -2.3978184338       -4.7721461790
  X        -3.9299272235       -3.7387519480        1.4357141550
  X         3.0203340263        4.4628643770       -3.9802871423
  X        -3.5560573253        0.8508225549       -3.1569816193
  X        -3.3055566727       -3.6793081945        1.1739808991
  X        -3.8195155612        1.4867587392       -3.0846428839
  X        -3.4784856993       -4.1983620068        1.2498047564
  X         3.0758094750        4.5541010305       -3.3084760863
  X         4.6210317441        4.3671592361        3.6791461227
  X         4.7698114424       -3.0906997977        2.8185645596
  X        -3.6453694834        1.0150580174       -2.6473079215
  X        -0.5471744629       -1.6909416429       -3.6944902797
  X        -0.8968128564        5.0108490790        4.1771945839
  X         4.8476576925       -2.4166958165        2.8916301632
  X        -0.4621502593       -1.7839954937       -4.3523222595
  X        -1.0483766437        4.4937637902        4.3546461188
  X        -3.0739257527        1.2830125884       -2.8873421471
  X         2.4983426875       -2.7018561895        4.9233021310
  X         2.5275353840        4.4718778930       -3.7220823311
  X         3.6788441780       -0.5859893243       -4.1246569290
  X         0.1627227216       -3.5715651069        4.0204483832
  X         4.1231289504        4.0886238141        4.0512409863
  X         4.6442343790        3.8076792133        3.7357317337
  X         4.3687454413       -2.7872780065        2.6274937537
  X        -1.3344534270        4.6927950294        3.7693233645
  X        -4.7760210332        1.3405377863        4.6517387109
  X         4.0770084657       -0.0575598475       -4.3167563123
  X        -0.3619179954       -1.1039177046       -3.9556595525
  X         3.4611622164       -4.4996907637       -0.5931470449
  X         4.7159458933       -1.8246557894       -0.2160610077
  X         3.8151771711       -0.2206399633       -3.7261202597
  X        -1.3074707888        3.2945624231       -1.9914416507
  X         0.0413555507       -2.9456888440        4.2770591342
  X         0.5664896427       -3.0418541022        4.1216500410
  X        -4.8068803315        1.8904395326        4.2438544639
  X        -4.1884569436        1.4266846319        4.3257495797
  X        -1.8261557745       -2.3972873741        1.6261590485
  X         4.1849341034        3.9996786347        3.2816371605
  X         2.8162754346       -4.5041087918       -0.7334122673
  X        -0.8965592696        3.1101174231       -2.4857189971
  X         3.3106436145       -0.0065577343       -4.1107331735
  X        -1.3730993717        2.7822466073       -2.1611898076
  X        -4.2680293162       -0.7920924702        2.3442785965
  X        -4.7775424679        1.2308506386        4.1141359861
  X         4.6837905976       -1.1590983724       -0.4246612777
  X         0.2275001163       -4.5385912264       -0.8646141810
  X         3.0190691849       -4.9891327382       -0.6810345825
  X         0.1630016776       -2.8911516651        3.5923270482
  X        -2.3478456396        1.1777918493        4.0765638138
  X         0.1583175143        3.2782138758       -4.7147107302
  X         4.2228393968       -1.3501970915       -0.2026430051
  X        -4.0646820257       -0.1951403261        2.6056735828
  X        -0.2045964696       -4.3977552531       -0.3710179709
  X        -1.3229988204       -2.1437282239        2.0127985912
  X        -2.0198724846        1.5998818707        4.1488170484
  X        -1.7784836234        4.3742193934        1.4672001516
  X         0.8790075001        3.3099576375       -4.3757208218
  X        -1.7269659987       -1.7833002790        1.8774075535
  X         4.8578598135        1.9412003623       -1.1250473953
  X        -3.6613762989       -0.6055620901        2.0648552825
  X        -1.7620246317        1.0743634024        4.4595221871
  X         2.8602087675       -4.6946705233       -0.0903330537
  X         0.3546961099        2.9614250180       -4.1866835339
  X         0.3879196925       -4.1416828881       -0.1816870101
  X         4.6751548208       -1.1672535139        0.2520282717
  X        -4.3001349336       -0.3613104155        1.9896076001
  X        -0.8355178632        2.8573352336       -1.7536635335
  X         0.1433071638       -4.7813657411       -0.2296421708
  X        -1.4725485532        3.7587517929        1.4813569665
  X         4.1998978928        1.8937712992       -1.3005106773
  X        -1.2821159930       -1.8931589631        1.3689006546
  X         0.5785234241        2.7256459712       -4.6386682131
  X         4.3810251026        1.2718353131       -1.1054282169
  X        -1.0565660756        4.2409005230        1.2181349379
  X        -1.7681575114        1.2189798925        3.6628148440
  X         0.8695756324        0.3763956828       -4.4684595867
  X         1.4212262110        0.5246186512       -4.5548379669
  X        -1.2891738478        4.1393470439        1.8533094781
  X         4.2801557597        1.8464892770       -0.7659655372
  X         2.1333556536       -2.2414939311        0.3755238812
  X         0.9646174170        0.9771530411       -4.7809240981
  X         1.0963749781        0.2915160680        4.9916172660
  X         1.6284960638       -2.5882891262        0.6891299357
  X         1.9773680047       -2.1759515275        1.1232513522
  X        -2.2763669186        1.2293042890        1.2374213206
  X         1.5468509688       -2.0342651256        0.6245694944
  X        -1.8395058023        1.7173548193        1.2892937748
  X        -1.8024012040        1.1197765904        0.7684848661
  X         1.9593846028        2.7052134062       -1.0460910014
  X         1.4235255566        3.1461757338       -0.6815639283
  X        -1.8093744243        1.0732783225        1.4609746184
  X         3.9111988712        1.6317271951        1.8545704520
  X         1.5280262142        2.4744745728       -0.5766489508
  X         0.3480167746        0.1497768552       -0.5843277858
  X         3.5685413750        1.7923516431        1.1699118180
  X         3.2742703643        1.4270855388        1.6647046450
  X         1.4120092325       -0.3224911920        2.5886777615
  X         1.2934810675        2.6040133767       -1.0483607807
  X         0.7778359311       -0.2240721212       -0.2269291781
  X         0.2699913202        0.1797116799       -0.0481010843
  X         1.1732890005        0.0428128934        2.9109184264
  X         3.3430156187        1.9602351892        1.7551304996
  X         0.9060599664       -0.0302290162        2.2699142563
  X         0.7812432221        0.5557664073       -0.2786789108
  X         1.6297606223        0.2943666412        2.4552756481
