     224
 Particles+Wannier centers. Iteration:1_2000
  O         1.0393484538       -0.1816147370        2.5823350856
  H         1.4232565265        0.2666312019        1.8114868637
  H         0.1789618067       -0.6315041020        2.1959096700
  O         0.8164876540        0.5969473929       -4.3785356240
  H         0.6412786612        0.6106478336        4.7923504978
  H         0.7299889567        1.5499312642       -4.0886522042
  O        -4.0636923113       -4.8351425534       -5.0167952522
  H        -4.5979268318        4.8313148441        4.3363834524
  H        -3.9464865130       -3.8861168985        4.8986846663
  O        -3.9898519852       -0.5165095618        1.2276688549
  H        -3.2562453015        0.0969966736        0.8818761662
  H        -4.1809640739       -0.2091382361        2.1634195564
  O         0.5921973822        3.4688521824       -3.7945002149
  H         1.5172433489        3.8203942780       -3.9202903941
  H        -0.0223132554        3.8283509829       -4.4570775323
  O        -0.3198683328       -2.9401352713        4.5140258086
  H        -0.5793773318       -2.4148361397        3.7106499554
  H        -0.6183676133       -3.9342026171        4.3776899807
  O        -3.9080161678       -4.6854248785        1.0330032877
  H        -4.5079680879       -4.0638846112        1.6081745576
  H        -3.6403202045       -4.1058929566        0.2901613091
  O         0.4178842761        0.5038702385       -0.6678534736
  H         1.0963226828        1.2141315891       -0.6685334280
  H         0.7394589024       -0.2806565520       -1.1421741456
  O        -1.5027456949        4.6445381716        4.2245924725
  H        -1.4195375061        4.3952936010        3.2556965827
  H        -2.4353990722        4.7319783325        4.4753504990
  O         2.7741963161       -3.1628611723        4.7306503155
  H         1.8363514975       -3.0591835517        4.4506024393
  H         3.0562906107       -2.3278620932       -5.0332808681
  O        -1.4320111907       -1.8152664799        1.9309244407
  H        -2.3489142488       -1.6386939755        1.6685620674
  H        -0.9887414404       -2.5314934247        1.3756499533
  O         2.5565857831       -3.2026612643        0.3809591024
  H         3.1520536064       -2.5736783907       -0.1361510149
  H         2.8683089529       -3.0445802337        1.2666405469
  O        -1.6484526222        1.3531492476        3.6025571106
  H        -1.7229911080        1.6005661770        2.6420430285
  H        -1.5591771290        2.2055519195        4.1354503608
  O        -3.4371396611        0.7675794762       -3.2379922104
  H        -3.5375761146        1.2468661840       -4.0312968161
  H        -2.5802555102        1.1807984695       -2.9175532276
  O        -4.2891763396        0.8901839958        3.8687337723
  H        -3.3053402266        0.8890897819        3.7075336361
  H        -4.6545528752        1.7737735464        3.6069199532
  O        -3.2176578163       -1.9447617733       -4.3680358952
  H        -2.3296770137       -1.9644391610       -4.0100688003
  H        -3.5886134820       -1.1088100582       -4.0923064223
  O        -1.9243570620        1.2817788182        0.8766793798
  H        -2.0833726110        2.1020498009        0.3870852210
  H        -1.0442218178        0.9765524513        0.4798028379
  O         3.2985158300        1.9631166356        1.6829811117
  H         3.8325478557        1.6366593721        0.9527057397
  H         2.6190556293        2.6061583298        1.3144563363
  O        -3.9909066690        3.7451098090       -2.4321676307
  H        -3.1410044053        3.2978147527       -2.1999022489
  H        -3.9567844626        4.0657922725       -3.3652608746
  O         3.8303061853       -0.8230317689       -4.3462216845
  H         3.1555709088       -0.1297660458       -4.2355882055
  H         4.5857835748       -0.2794267893       -4.5868604691
  O        -0.3625657950       -3.8275358445       -0.0861385484
  H        -0.7855563407       -3.2641326767       -0.7960798687
  H         0.5972849688       -3.5725218384       -0.1633215172
  O        -3.5814671131       -3.4778492377       -1.9385327428
  H        -3.5616662196       -3.0678615617       -2.8644285139
  H        -4.1300052533       -4.2437601613       -2.0185962266
  O         4.3451291332       -1.7601008281       -0.9119216858
  H         4.8741594249       -1.3705563274       -0.2064092356
  H         4.9339058681       -2.4652743825       -1.2425672570
  O        -1.4041710232        2.2409294259       -2.2504421159
  H        -0.7940095504        1.6170627815       -1.7632463444
  H        -0.7591697642        2.7151516267       -2.7877754116
  O        -0.6917538304       -1.4295718670       -3.1240678525
  H        -0.5284489471       -2.1023965375       -3.8227881509
  H        -0.1615048298       -0.7457741057       -3.6524000649
  O         1.3824374779        3.3673687567       -0.3499940898
  H         2.2063384776        3.9079516290       -0.6507930943
  H         0.5946615581        3.9268718482       -0.2077364583
  O         4.3691970748        3.5403776660        3.6889344535
  H         3.7265552750        3.6545130046        4.4300263880
  H         4.0097023207        2.9851007312        2.9511090429
  O         3.7379651514        4.8464963257       -0.5530217617
  H         4.5584247011        4.4551524007       -0.1843086105
  H         3.5601454388       -4.4646953491       -0.0335918924
  O         4.7939068051       -3.0690573911        2.8682646389
  H        -5.0192635718       -2.2256675406        3.3512567404
  H         4.0468580364       -3.3367055066        3.4424252332
  O         3.9703486803        1.6764348012       -1.1425147741
  H         4.1179647725        0.7289895878       -1.4376887931
  H         4.6413388990        2.1375694631       -1.7822334921
  O         2.9958487152        4.7342223355       -3.9782586949
  H         3.6016040600        4.7113640010       -3.2275529199
  H         3.0090998758       -4.4645473123       -4.3588782350
  O        -1.5636684856        4.3475296927        1.3867558995
  H        -1.2243574158       -4.8599748322        1.1531467024
  H        -2.5479423143        4.4613235985        1.4014654238
  X        -4.0217914169       -4.3399351427        4.9779727641
  X        -3.5783079954       -3.2865033465       -2.4079439372
  X        -3.2189146319       -1.9708786655       -4.6756710241
  X        -4.2021481652       -4.8847682441       -4.7357986666
  X        -3.7598228377       -4.9584874752        5.0394177650
  X        -3.8749484084       -3.8844977721       -1.9935537660
  X        -3.3032449388       -3.5638522007       -1.8561381228
  X        -3.3744947269       -2.1804417627       -4.1912857973
  X        -4.3382102541       -5.0275074104        4.7028182073
  X        -2.7547604457       -1.9419245714       -4.1883124318
  X        -3.7539050455       -3.2738403882       -1.7521190609
  X        -3.4053611609       -1.5039005814       -4.2240866148
  X        -3.9516827749        3.8918946922       -2.9221424320
  X        -4.0105655686        4.0071565025       -2.2640309609
  X        -4.2198120369        3.5262781447       -2.4125653032
  X         3.3140141796        4.7340659268       -3.5786313439
  X        -1.9829752146        4.6834888960        4.3289790735
  X        -3.5419963927        3.5221912550       -2.3325428865
  X         5.0313912619       -3.2840644717        2.8722796547
  X         3.0073854255       -4.9102130719       -4.1441188845
  X         2.7909275525       -3.3961830946        4.9762799466
  X        -3.4008013127        0.4566210924       -3.3242263513
  X         2.6867044237        4.6486456743       -3.8823864061
  X        -0.4721527935       -3.4208515934        4.4298737974
  X        -3.7671172602       -4.3718425958        0.6458868633
  X        -1.0005210525       -1.3663719148       -3.1547083786
  X        -3.4886106296        1.0313244276       -3.6708978953
  X         3.8823079386       -0.9287303230       -4.0734757637
  X         4.4175876361       -3.2128037649        3.1573584772
  X        -1.3551403680        4.9449497739        4.2579793978
  X         4.9465870109       -2.6260394942        3.1206153434
  X         4.6471127519       -2.1260608437       -1.0760125551
  X        -4.1993923983       -4.3755247929        1.3129646520
  X        -3.6617128104        0.8600557583       -3.0511843370
  X        -1.3800531155        4.3996478423        4.3967373137
  X         2.9553134274       -3.2148146574        4.4597725533
  X         2.9020512136       -2.7292126590        4.9051023634
  X        -4.0886066775       -4.8997782092        0.9071399584
  X         3.1257762960        4.5490510333       -4.2026018285
  X        -3.0044788015        0.9606367648       -3.0812392511
  X        -0.4620879352       -2.8201388970        4.7808678024
  X        -0.6121318772       -1.7975687288       -3.4675480171
  X        -3.6404440665       -4.7751218314        1.1953573572
  X         4.2309651378       -0.5409040767       -4.4796417534
  X         0.0056072082       -2.9465713620        4.5058066759
  X         4.6816099284       -2.9887941491        2.5924966420
  X         3.7409132570       -1.0226786432       -4.5918136051
  X        -0.5465395076       -1.5033386572       -2.8531454557
  X         2.2930349328       -3.1010998620        4.5902690313
  X         3.8104965786        4.9418244607       -0.8353290776
  X         4.4528988062        3.8390258450        3.6026535682
  X        -1.4819164218        4.5169034842        3.7393321664
  X         4.3071895463       -1.5522058674       -1.1253657512
  X        -0.4648956510       -2.6830037102        4.0949226841
  X         4.6233587635       -1.5647749278       -0.5426982399
  X        -0.4341502962       -1.0768564400       -3.3750196898
  X         3.4767128046       -0.4548090549       -4.2945356770
  X        -4.3377133911        0.8574134051        4.1774656443
  X         4.1630571098        4.6389265770       -0.3504671421
  X         0.2879292340        3.6697632724       -4.1549726894
  X         4.0164984093        3.5774275582        4.0577536199
  X        -0.5807208378       -3.5337975954       -0.4570509235
  X         3.6674537658       -4.8566677434       -0.2770432218
  X         4.6031701473        3.3645381595        3.8035224796
  X        -1.6018913546        2.0511821211       -2.4458339586
  X         4.0679618179       -1.9149597420       -0.7576322708
  X        -4.4580505465        1.3557067249        3.7234303167
  X        -3.8017961675        0.9088871730        3.7839079660
  X         1.0396435985        3.6496090181       -3.8719272116
  X        -2.0598777642        4.4042520993        1.3873549373
  X         0.4759646629        3.5466432712       -3.5169063119
  X        -1.5411434408        2.4403656725       -2.0503056857
  X        -1.9048609097       -1.7482518016        1.7783433596
  X        -1.0790980942        2.4828033963       -2.5335336299
  X         0.1259625469       -3.6950851135       -0.1305773387
  X         3.4761541716        4.6376146701       -0.5171386973
  X        -4.4064976141        0.6718186620        3.6617439326
  X        -0.3960403877       -4.1221190617       -0.1522677229
  X        -3.8410351113       -0.7985765916        1.2647568198
  X         0.5965418057        3.1411825571       -3.8555978181
  X         2.8304936443       -2.8852203169        0.1328003160
  X        -1.4048866609        4.8143339775        1.2714541954
  X         4.1678884975        3.2793129366        3.3250766157
  X        -1.4822923845        4.3000022124        1.7128059185
  X        -1.4274298329       -1.9232045745        2.2293664892
  X        -4.0821930251       -0.3490807962        1.7053858773
  X        -1.2322487249       -2.1888302550        1.6322622329
  X        -0.4732255221       -3.7133019096        0.2097268393
  X         4.3113505972        1.9116160027       -1.4656718269
  X        -1.9564634552        1.2334648596        3.6762017977
  X        -4.2526890152       -0.5028523112        1.0490514995
  X         2.7117095211       -3.1093275828        0.8596255391
  X        -1.0965390618        1.9279504694       -1.9982909783
  X         2.6855819578       -3.4939885804        0.3153925922
  X        -3.6336700155       -0.1990558092        1.0620210925
  X        -1.6056959652        1.8117277139        3.8685196757
  X        -1.4780372634        4.1431579238        1.1675685061
  X         0.5878813784        0.4017482749       -4.2287264677
  X         4.0469908191        1.1772377706       -1.2959404974
  X        -1.2626443039       -1.5508110109        1.8731511443
  X         2.2366732551       -3.1549467133        0.3458702965
  X         3.6843448205        1.7522274320       -1.2253227268
  X         1.1192976614        0.5304441275       -4.3492599361
  X        -1.3997639663        1.1929937003        3.6454159515
  X         0.7585027899        1.0824076550       -4.2370928752
  X         0.7186797941        0.6175923587       -4.8697737041
  X         4.0770913905        1.6979217826       -0.8403078295
  X        -1.6796388084        1.5046455281        3.1250663210
  X        -2.0087386342        1.7128496695        0.6148447211
  X         1.7625567633        3.6551023375       -0.5112582282
  X        -2.1640145396        1.0579564702        0.8013527797
  X        -1.8771779471        1.3637673468        1.1934411621
  X         0.9765551358        3.6837178633       -0.2866927571
  X         1.3077167064        3.1425350665       -0.5590903846
  X         0.6032777855        0.0963583869       -0.9126786399
  X        -1.4819690901        1.1332563626        0.6779667353
  X         3.4919675115        2.1379875141        1.9042291448
  X         0.1738172596        0.6274893313       -0.8425298929
  X         1.4638386795        3.2719647523       -0.0571590005
  X         1.2260555358       -0.4092661305        2.6455650351
  X         3.5752725500        1.8117639874        1.2946673215
  X         0.3517120030        0.4360554834       -0.3675245433
  X         3.1412520739        1.7269053090        1.7803342567
  X         0.6019313061       -0.4020251439        2.3744373013
  X         0.9523383486        0.0311891266        2.7910149954
  X         0.7853129820        0.8482640256       -0.6776137907
  X         2.9598874622        2.2943099196        1.4779700396
  X         1.2311893273        0.0568653202        2.1639377896
