     224
 Particles+Wannier centers. Iteration:1_450
  O         1.0391925073       -0.1359612424        3.5845466696
  H         1.2209203310        0.6090708511        3.0054974998
  H         0.2732385493       -0.5951917196        3.0286443937
  O         0.6250990241        0.1852824408       -3.8774713800
  H         0.5490707690       -0.0303910367       -4.8268952355
  H         0.5202364701        1.1636481780       -3.8422272852
  O        -4.1838574387        3.3588743217       -4.5205812113
  H        -4.9581002544        3.3853010441        4.9300884098
  H        -3.9307302926        4.3010781305       -4.4078924138
  O        -3.3165904429       -0.4775819404        1.1834354268
  H        -2.8632852460        0.3989468636        0.9068271700
  H        -3.7823373735       -0.3450737935        2.0803834641
  O         0.1799775723        2.9060830450       -3.6289883846
  H         0.9487947436        3.4823136905       -3.7635548724
  H        -0.3062152266        3.1758193019       -4.4108631372
  O        -0.6552774031       -3.1980409045        4.0327829249
  H        -0.8971622990       -2.7542401511        3.1478354280
  H        -1.0048522955       -4.1371248783        4.0679783006
  O        -3.1935961536       -3.2500244583        1.1223868648
  H        -3.7719463128       -3.1679110251        1.9196028970
  H        -2.9325825315       -2.3445272271        0.8961389171
  O        -0.3198235050        0.4272102305       -0.5237571559
  H         0.6250045284        0.2739537029       -0.6229921812
  H        -0.8139432051       -0.2468009518       -1.0362503638
  O        -1.2920808574        4.0062369575        4.1969282952
  H        -1.2411558933        4.0025435801        3.1776385111
  H        -2.3086133040        3.9309694683        4.3196517816
  O         2.1147091179       -3.0769503675        4.6609578522
  H         1.0907677516       -2.9753387761        4.4620920571
  H         2.4864478912       -2.2743876700        5.0052743460
  O        -0.5124243622       -1.5400910977        1.9547124048
  H        -1.3708360149       -1.0665121903        1.6188011200
  H        -0.0536987772       -2.0705976666        1.2165145784
  O         3.1561336904       -3.1369847299        0.0909823390
  H         3.6984535302       -2.5241565906       -0.4921665709
  H         3.6784941497       -3.1376336591        0.9220586276
  O        -1.6762157203        0.9667342892        3.9919699925
  H        -1.4580674388        1.5266591981        3.1794846563
  H        -0.7983522429        0.5060494081        4.0906706139
  O        -4.0020189261       -1.1104546614       -3.5496172171
  H        -4.9425605073       -1.0592207230       -3.8769744965
  H        -3.6911512661       -0.2197288872       -3.4091935060
  O        -4.3562175236        0.1795344303        3.7789303387
  H        -3.3686212604        0.3139811241        4.0509876527
  H        -4.7416212664        1.0477443661        3.6069273484
  O        -3.2267787650       -3.8394470462       -3.9414291068
  H        -2.4099295424       -3.5083893231       -4.3506654622
  H        -3.7583250069       -3.0505847224       -3.6601065571
  O        -1.6524472555        1.5951866818        1.3309148215
  H        -1.8656682299        2.5513841220        1.2393252684
  H        -0.9862539712        1.3797893502        0.5832912850
  O         2.0476099344        1.6036498997        1.7258447362
  H         2.3642649686        1.0988267786        0.9468989276
  H         1.4816216717        2.2975055080        1.3092113579
  O         4.5561608341        2.2089135040       -2.4581511012
  H        -4.7809446908        1.8827926204       -2.0215112888
  H         5.0322989283        2.6300177242       -3.2209886228
  O         3.4235771002       -0.7746326055       -4.3498696919
  H         2.6695091919       -0.3435451149       -3.8787647901
  H         3.6362475026       -0.1472168295        5.0460267390
  O         0.4560255963       -2.7229016304       -0.1747294982
  H        -0.0374627613       -2.4421145993       -0.9893754132
  H         1.3521341951       -3.0956163326       -0.3263625308
  O        -4.2957330013       -4.3540912790       -1.2467549913
  H        -3.6076286475       -4.2079331163       -1.9307472616
  H        -4.0148899306       -3.8575616387       -0.4428343824
  O         4.9538284623       -1.1377046115       -0.9167222276
  H        -4.6455347727       -0.8705894776       -0.1276632890
  H        -4.4940468356       -1.3688036397       -1.5550580109
  O        -2.7318341527        1.3228864772       -2.8312178822
  H        -1.8706774710        1.0473871311       -2.4840049461
  H        -2.6572167981        1.9495634984       -3.5313909554
  O        -1.0326898553       -1.5252746068       -2.3924130721
  H        -0.4905540519       -0.9471890430       -3.0685619362
  H        -1.8230649822       -1.9410047957       -2.7677567195
  O         0.2484282711        3.9503084224       -0.2882965982
  H         1.1726320398        4.2211739783       -0.6048729901
  H        -0.0298135862        3.4673819877       -1.0773652935
  O         3.7804576805        2.5551612917        3.8479953247
  H         3.3618055492        3.1559709561        4.4867030496
  H         3.1649568187        2.4651926762        3.0543228965
  O         3.0795177900        4.2415781703       -1.3352810694
  H         3.7678005745        3.4795628806       -1.4332311795
  H         3.6996035477        5.0253861003       -1.0559831612
  O         4.6353962642       -2.4106462597        2.6516729623
  H         4.8068037339       -1.5952378720        3.1342814094
  H         3.8312521710       -2.8177090753        3.0782798566
  O         2.7868617586        0.3855405341       -1.0661605330
  H         3.4953513258       -0.2900673887       -0.8700440892
  H         3.2736074436        0.8905014603       -1.7605001595
  O         2.6574872979        4.6316756219       -4.3662370630
  H         2.8660778948        4.6529121967       -3.3894132132
  H         2.4931533097       -4.5682168453       -4.7274718201
  O        -1.6115403271        4.4105990467        1.6236739200
  H        -0.8976113284        4.5884999135        0.9182495975
  H        -2.2012975710       -4.8267139329        1.5576181073
  X        -3.4940220019       -3.4279536375       -3.8129763827
  X        -3.3803065153       -4.0106246031       -4.1489526128
  X        -3.1436873807       -3.9691509268       -3.6698250837
  X        -2.7998959908       -3.6477941018       -4.1521255154
  X        -3.9250340677       -4.2610886920       -1.5956181878
  X        -3.8251123321       -1.2560418468       -3.7597269499
  X        -4.0624355177        3.8513044672       -4.4671551777
  X        -4.5621841464       -4.2335354147       -1.3510150772
  X        -4.0180375640       -1.2456001848       -3.2521580423
  X        -4.2780398301       -4.6454669518       -1.1775588770
  X        -4.4746438350       -1.0727173106       -3.7159013449
  X        -4.1401979170       -4.0886615937       -0.8427059760
  X        -3.8554605038       -0.6448203531       -3.4880268240
  X        -4.3033952930        3.2486638564       -4.2330468112
  X        -3.9420375735        3.2176315151       -4.6571830673
  X        -4.5756158587        3.3839286185       -4.8509646478
  X        -1.4475850793       -1.7340851360       -2.6107085442
  X         2.9016954666        4.4809134259       -4.5264481037
  X        -0.8365443166       -3.6796982970        4.0293222501
  X        -3.3849867521       -3.3475382856        0.8795266360
  X        -3.4827590431       -3.1956026311        1.5356686656
  X         2.5905536293       -5.0127385611       -4.5236568750
  X        -1.8248816968        3.9636598063        4.2550082308
  X        -4.7947172227       -1.2516243086       -1.2480728016
  X        -2.9313355674       -3.4412671322        1.2017721677
  X         4.8935308853       -2.6031692872        2.6930412039
  X         2.7722766348        4.6684498033       -3.8677923598
  X        -2.6631400314        1.6540050956       -3.1996552843
  X         2.1642488572       -3.3385109387        4.8789039153
  X        -0.8141212514       -3.0509218960        4.2543804014
  X         3.6972288468       -0.7980771958       -4.1638214602
  X        -3.0521811669       -2.7820102279        1.0196745132
  X        -2.8790612442        1.4614081373       -2.6003639590
  X        -0.8439350204       -1.7577647896       -2.2829408702
  X         4.7792185074        2.4115120445       -2.8460753892
  X        -0.3185164232       -3.2059250513        4.0577532691
  X        -2.8680341468        1.0571035216       -2.9582127975
  X        -0.7947341727       -1.2631175778       -2.7445854260
  X         2.2847627178       -2.6529515162        4.8524166164
  X         2.2515357842       -3.1013125909        4.3813016792
  X         2.3752235885        4.4869814768       -4.3697573801
  X         4.2227591966       -2.6164789986        2.8825646941
  X        -1.2330420193        4.3187550967        4.2639703615
  X         4.5497809090       -2.3427817575        2.3598627166
  X        -4.5245250222        0.0414233529        3.9958327798
  X         4.7920516298       -1.4027581908       -0.8427982837
  X         3.3025147038       -1.0391701934       -4.4906675114
  X        -0.7892217051       -3.0067527038        3.5873819368
  X         4.4346033510        2.4505392729       -2.2646542856
  X        -1.1329788030       -1.3103374151       -2.1652268121
  X        -1.1439063907        3.7662142852        4.3529392349
  X        -2.2642202084        1.1938263304       -2.6673249647
  X         3.3891032938        4.6343823716       -1.1872148859
  X         4.9652317905        2.0308294336       -2.2176954294
  X         1.6170927469       -3.0048398211        4.5810186048
  X        -4.8819654833       -1.0039812582       -0.5110445984
  X         3.5246966118       -0.4393601417       -4.7217487654
  X         4.7086098744       -1.9826273162        2.9066381442
  X        -4.3359733105        0.0322602814        3.4728654411
  X         3.4283826471       -2.8187088073       -0.2013613691
  X        -3.8813850580        0.2590159373        3.9206729274
  X         4.3742080823        1.9616182822       -2.5359180672
  X         3.0492007068       -0.5446986490       -4.1038342547
  X         4.7811621339       -0.8849088568       -1.0117813210
  X        -1.9066193793        4.8349610404        1.5971705625
  X         3.0031677129        4.3063295073       -1.6432748255
  X        -1.2622177626        3.9783054262        3.7043261218
  X         0.0315123225        2.9927380694       -3.3717506139
  X         3.4164833238        3.8594829718       -1.3604709004
  X         3.4237786558       -3.1297001409        0.5299406207
  X        -4.5405851920        0.6459042872        3.6919185957
  X         3.1931565545       -3.4198953957       -0.0295584581
  X         0.5848863759        3.1997843243       -3.6938164939
  X         3.5542436220        2.8644890662        4.1732835745
  X        -3.0711032693       -0.6965922397        1.2263999916
  X        -0.0792113772        3.0433901620       -4.0315956557
  X        -1.7020642196        1.1474111005        4.2341896511
  X        -1.4746645287        4.3866496181        1.9402776963
  X         0.2301813854       -2.5774032662       -0.6064559197
  X        -1.7782866636        4.1539774777        1.5173660745
  X         2.8421791150        4.1873634919       -1.1126607522
  X         2.8562685081       -3.0248148125        0.1326433954
  X        -3.5415386296       -0.3971194053        1.6298776777
  X         0.3693595534        0.0202830098       -3.6966055684
  X         0.2749268512        2.5847554347       -3.6760579741
  X        -3.5489191433       -0.5595311640        0.9595924597
  X         4.0630688892        2.6872185096        3.7740243859
  X        -1.9248911888        0.7500525481        3.9186380102
  X        -1.2549670386        4.5101811860        1.2856670924
  X         0.9083387024       -2.8964694102       -0.2831631758
  X         3.7864583867        2.2723337367        3.9721845664
  X         0.2999030121       -2.9481489405       -0.0790407370
  X         0.9295660390        0.1219138615       -3.8098777011
  X        -1.2279699432        0.7164141489        4.0407273629
  X         0.5682039306        0.0835015649       -4.3596676104
  X        -3.1122248097       -0.0399020938        1.0552740382
  X        -0.6273164956       -1.7716515970        2.1694869476
  X         0.5621775114        0.6754343049       -3.8660811748
  X         0.0520863362        4.2009405545       -0.2257284785
  X         0.4637778796       -2.4686787282        0.0468605039
  X        -1.5684970104        1.2531054052        3.5850149163
  X        -0.9411572947       -1.3083857787        1.7592222216
  X         3.4681948112        2.5395460022        3.4482703198
  X         3.0312200120        0.6477600184       -1.4272237458
  X        -0.3006061900       -1.7722989156        1.5900400915
  X         0.0935071951        3.6982050448       -0.7063184977
  X         0.7094663510        4.0984289996       -0.4456077168
  X         3.1308770631        0.0384289489       -0.9647882791
  X        -0.5658462207        0.0727129537       -0.7797860942
  X        -0.3131251864       -1.2997062339        2.1010569557
  X         2.7615033611        0.5729641245       -0.8016276382
  X        -1.9313723143        1.4133748195        1.2471298846
  X         0.8914493975       -0.0260999284        3.8839092749
  X         0.2951224533        3.7366526552       -0.0677179106
  X        -1.7621951175        2.0852970783        1.2715834646
  X        -1.5262676537        1.5581521382        1.6294045905
  X         1.2722371311       -0.3119069492        3.5894777400
  X         0.6644919886       -0.3497472440        3.3259278896
  X        -0.3791057152        0.6954706886       -0.6594362200
  X         2.5275710073        0.2527821543       -1.1826640887
  X        -0.4060499938        0.4277515772       -0.2094799262
  X        -1.3194877917        1.5147449291        0.9795606887
  X         0.1688552254        0.3304330026       -0.5789696313
  X         1.1247824395        0.2609398875        3.2981278351
  X         2.2977094706        1.7556301023        1.8655560768
  X         2.2079443317        1.3453333468        1.3244760984
  X         1.8545157585        1.4156743857        1.9069937218
  X         1.7521299177        1.9646512200        1.5028012057
