     224
 Particles+Wannier centers. Iteration:1_1400
  O         1.2458974364       -0.0834102713        2.7543367399
  H         1.2570645051        0.7502231816        2.3013879027
  H         0.5379184214       -0.7068195241        2.3442136481
  O         0.9548109091       -0.2781471583       -4.3956989243
  H         1.0264393930       -0.2653796730        4.7431954836
  H         0.8297131406        0.6581212587       -4.1956223182
  O        -4.1580079017        4.4136947701       -4.8618078605
  H        -4.6573746483        4.0672429955        4.4516338706
  H        -4.5957674045       -4.8758415678       -4.5843305806
  O        -3.5122785077       -0.6216404229        1.6680517919
  H        -2.9841286441        0.0580489189        1.2438921315
  H        -3.9250366169       -0.1351792646        2.4486486306
  O         0.7203670490        2.4690082095       -4.3430723763
  H         1.5181843088        3.0752291045       -4.2993288028
  H         0.2822943659        2.8155257995        4.9870735338
  O         0.1404017050       -3.1790494848        4.3039015111
  H        -0.2589815094       -2.8000389746        3.4686267243
  H        -0.3041537571       -4.0024074536        4.5637661263
  O        -3.6159074426       -3.9887410776        1.7612686111
  H        -4.5110626717       -3.5455810730        2.0456911548
  H        -2.9395247646       -3.3440341978        2.0580019645
  O         0.2965342056        0.4169182808       -0.8563587202
  H         1.2688098070        0.6188796995       -1.0676784226
  H         0.1351211346       -0.4668332447       -1.2791202330
  O        -0.7769008899        4.3956705605        4.1192858680
  H        -0.9907453797        4.2876910685        3.1723479260
  H        -1.5416981985        4.0722130605        4.6212199725
  O         2.8788616749       -3.0105001985       -4.8513339353
  H         1.9125769320       -2.7661974071       -4.8962265726
  H         3.3669730286       -2.2791360603       -4.5150853951
  O        -1.0910562362       -2.0183477803        2.0218492177
  H        -1.8913982165       -1.5352769639        2.1422628146
  H        -1.1176978046       -2.3766067551        1.0997850684
  O         2.3028176593       -3.0021711197        0.4778348073
  H         2.8081505905       -2.2487141848        0.0516325045
  H         2.7166569354       -2.9164483023        1.3782617744
  O        -1.5082829539        1.0035505580        4.0720431070
  H        -1.3271809868        1.0306366503        3.1186172850
  H        -1.2158977659        0.1554392356        4.4042568718
  O        -3.1557879689        0.3784605120       -3.4680510862
  H        -4.0147605016        0.8421711468       -3.2671943736
  H        -2.4075780225        0.9805181622       -3.1288422507
  O        -4.5854139448        0.7728463501        3.7826466931
  H        -3.7397041536        1.0227906851        4.1849075592
  H         5.0306162994        1.6419125181        3.6806089677
  O        -3.5800811715       -2.6647177034       -4.4342624946
  H        -2.8407282244       -2.7794508879       -5.0467901137
  H        -3.5728103665       -1.6613406841       -4.1886152623
  O        -1.4363848608        1.2758229446        1.2046248823
  H        -1.5344571654        2.2480366184        1.1453825244
  H        -0.6437603035        1.0494247443        0.6802588872
  O         2.0070154640        2.5904140048        1.3208387212
  H         2.3967558031        2.2874074769        0.4661550914
  H         1.4268254332        3.3413198726        1.1262130458
  O        -4.4673612762        3.2095948306       -2.3028630667
  H        -3.7739686615        2.7848621383       -1.7754138725
  H        -4.0592846278        3.3955329420       -3.1970740303
  O         4.1580822167       -0.5538797175       -4.1085364180
  H         3.3291315672       -0.0898567081       -3.9355257719
  H         4.4196073797       -0.0741605466       -4.9636180400
  O        -0.2682718508       -3.6733750332        0.2847851342
  H        -0.0162932968       -3.7219565749       -0.6638297556
  H         0.7007416703       -3.4111146293        0.4824762684
  O        -2.6360765643       -3.5768955179       -1.9920248442
  H        -2.9306515922       -3.6488780958       -2.9098935921
  H        -2.3835450253       -4.4094146569       -1.6621732990
  O         4.6870919604       -1.8026481238       -0.7378133942
  H        -4.8270398275       -1.2721892078       -0.1524915131
  H        -4.7529338688       -2.2705891451       -1.2987026209
  O        -1.2083726853        2.1223694216       -2.6106829855
  H        -0.7480879419        1.5365964464       -1.9060213117
  H        -0.6346524430        1.9874933011       -3.4154300987
  O        -0.2463034728       -1.8196325566       -2.1431056135
  H        -0.0147229787       -1.4856400243       -3.0174422786
  H        -1.0931056130       -2.2987160090       -2.2621016428
  O         0.9489558887        3.9940459988       -1.0024749389
  H         1.8585740775        4.3122262066       -1.2932437176
  H         0.5328241860        3.6206651542       -1.8346792934
  O         4.0987995195        2.9544086894        3.5607088338
  H         3.4074481470        3.2618870283        4.2118105859
  H         3.6608269199        2.8571555772        2.6897193570
  O         3.2009823781       -4.7795580275       -1.4210449576
  H         4.2275581964       -4.9255083986       -1.5734093069
  H         3.0922970842       -4.2296669303       -0.6359759117
  O         3.6536180905       -2.4969200255        2.6217033086
  H         4.1645655382       -1.7208308961        2.7071998765
  H         3.5817059741       -2.8053394007        3.6070049957
  O         3.2232589676        0.9185752005       -1.1939844685
  H         3.8226546632        0.1203258365       -1.2022892485
  H         3.8042264478        1.5011737748       -1.7464178064
  O         2.8674831493        4.2260365332       -4.4270099784
  H         3.5533263787        4.0057816955       -3.7405347617
  H         2.8341140889       -4.8490953096       -4.4477028163
  O        -1.7378303828        4.3213084691        1.1948816044
  H        -1.0814303383        5.0452746328        0.8434890165
  H        -2.5330385878        4.8442647071        1.4731043776
  X        -3.4958904739       -2.8312850061       -4.1667204769
  X        -3.8391180190       -2.7283578532       -4.5848878875
  X        -3.1818917275       -2.7122947155       -4.7637171155
  X        -2.7806268156       -3.6481673342       -2.4677672701
  X        -3.5643687284       -2.1585116925       -4.3210237989
  X        -4.4043113924        4.8443163179       -4.7252840387
  X        -2.8813965061       -3.4864172416       -1.8342490549
  X        -3.8726643206        4.4884439193       -4.9481595666
  X        -2.5035225302       -4.0387767890       -1.8339053132
  X        -4.1988837751        4.1976518836       -4.6151056902
  X        -2.3720337031       -3.3949554567       -2.0027963746
  X        -4.4219299414        4.2500703930        4.8354531441
  X        -4.5281734164        3.4837173343       -2.1795718139
  X         2.9138326428       -3.2967061256       -4.6763876558
  X        -4.2448136210        3.2895682872       -2.7533564219
  X        -3.1623082344        0.1006103204       -3.3223359919
  X         3.1178214894       -2.6334124328       -4.6556165733
  X        -3.5613852319       -4.2706603261        1.9065865044
  X         2.9822906191       -3.0166723112        4.9269810652
  X        -4.6959666645        2.9964697497       -2.3450746535
  X         5.0344860277       -2.0476437231       -1.0313469119
  X         4.0777492085       -0.8626207479       -4.1794092030
  X        -3.6049560702        0.6380396050       -3.3479338326
  X        -4.0679161806       -3.7678007458        1.9180480346
  X         2.8554256123        4.7277046067       -4.4297904976
  X        -3.1436557267        0.3833737967       -3.7726642107
  X        -3.2659308409       -3.6443914886        1.9293700521
  X         3.7328652625       -4.8519608424       -1.4825998253
  X        -3.6073372323       -3.9721780761        1.4633348303
  X        -4.0924082421        2.9851813770       -2.0303247787
  X         2.3945695652       -2.8706336449       -4.8594939818
  X        -2.7958826798        0.6778842993       -3.2908961909
  X        -0.1058087974       -3.5980780127        4.4247719886
  X         3.2279549858        4.1197821417       -4.0659275709
  X         4.3623161569       -0.4737995590       -3.8921590673
  X        -0.6910778505       -2.0486096581       -2.2106877685
  X        -1.1931004898        4.2209628162        4.3705289237
  X         2.5781740564        4.0994828149       -4.3241394722
  X         4.2829709202       -0.3162399308       -4.5457369080
  X         3.1125061437       -4.6161411374       -1.6536432530
  X         4.5390319542       -1.5897373838       -0.9157380840
  X         0.0850796991       -2.9706548111        4.5241296560
  X         4.5314255050       -2.0015816858       -0.5656023564
  X         3.1679855384       -4.5055624213       -1.0127544668
  X         0.4368025261       -3.2459817919        4.2549139583
  X         3.7178119564       -0.3053175225       -4.0140114061
  X        -0.7485965699        4.7115998692        4.1872825653
  X         2.9848796130        4.1129895473       -4.7195044129
  X        -0.1398299981       -1.6528082991       -2.6052722092
  X         3.6171452173       -2.6412680726        3.1028811807
  X        -0.2756571166       -1.5496867614       -1.9404245332
  X         5.0006599025       -1.5278849970       -0.4316774770
  X         3.0531671875        5.0208504829       -1.3678827347
  X        -0.5400734962        4.1974500878        4.1869329031
  X        -4.1489477862        0.9101393314        3.9931830992
  X        -0.0732799716       -3.0090938770        3.8763113539
  X        -1.5100872519        1.9682733655       -2.6725166852
  X         3.8559550394       -2.6989167827        2.4862137700
  X        -2.1424788843        4.5877513987        1.3268648165
  X        -4.7548319003        0.5988057719        4.0019847622
  X        -0.0446799773       -2.0330625510       -2.0754472583
  X         3.9153688005       -2.0678579418        2.6668953468
  X         4.3138995660        3.1930749653        3.5552190635
  X        -4.8078810454        1.1978679356        3.7232730115
  X        -0.9020115386        4.3375041193        3.6348729987
  X        -1.1924821745        2.4179514228       -2.5344602743
  X        -3.2978137847       -0.8382434890        1.7843220537
  X        -0.1634567073       -3.7040527349       -0.2163308059
  X        -1.5148731684       -1.7693600740        2.0843776278
  X        -0.9235927090        2.0396064074       -3.0169752967
  X        -1.8065768520        4.1060311985        0.9791811354
  X        -4.5118091910        0.6317349221        3.4813765364
  X        -0.3585471026       -3.9858478178        0.4024670072
  X        -3.7141702847       -0.3773720134        2.0544086439
  X         3.3653229867       -2.4571020699        2.4770191261
  X        -1.8277300620        1.0060739772        4.0979145370
  X        -1.4267542164        4.6753129157        1.0196377902
  X         1.2373841941       -0.3474638413       -4.2930944218
  X         3.7363011896        3.0881957035        3.8775981140
  X        -3.7442493584       -0.7147212194        1.4691982623
  X        -0.4650490151       -3.4032883300        0.3370446172
  X         4.2212440003        2.6457184318        3.6424533112
  X        -1.1235084755       -2.1847501328        1.5568942892
  X        -0.8513410954       -1.8172150273        2.0444573180
  X         0.5232162527        2.5168347243       -4.0972756039
  X        -0.9730859410        1.8338923410       -2.2622806925
  X         2.4308154295       -3.2696992163        0.3359291156
  X        -1.3483931960        0.5392748972        4.2313534020
  X         0.6972874136       -0.4479689287       -4.2993283536
  X         1.1199852804        2.7662651743       -4.3111878292
  X        -3.2479725286       -0.2612422871        1.4474074712
  X        -1.6068722523        4.2226756348        1.4768138532
  X         0.1888765320       -3.5578798255        0.4136034787
  X         0.7947448036        4.2473108545       -0.9444608768
  X        -1.3384420118        1.2181239754        4.2096595555
  X         0.8121633407        2.1611072664       -4.3944427591
  X         2.4902015717       -2.9680189898        0.9251081681
  X         0.8836763443        0.2051374093       -4.2939486930
  X         2.5381172774       -2.6025939821        0.2563879672
  X        -1.0902119259       -2.2710510352        2.2276751837
  X         1.4041034279        4.1360735697       -1.1596390812
  X         0.9808653714       -0.2682464401       -4.8958656018
  X         0.4969560743        2.6446850041       -4.7521433665
  X         3.8695712999        2.9148710740        3.1130452909
  X         3.5189741357        1.2277522945       -1.4903457472
  X         0.7431141428        3.7957997985       -1.4472591871
  X         1.9572958142       -2.9694892226        0.4804481660
  X        -1.4036071876        0.9981569567        3.5811656111
  X         3.5262638429        0.5042209241       -1.1952945488
  X         2.9486193497        0.8518512585       -1.3446700758
  X         0.9783100320        3.7650980082       -0.7922617586
  X         0.2288646362       -0.0245637558       -1.0562153514
  X         3.2249459549        1.0385469695       -0.9060599435
  X        -1.6974482696        1.1332972533        1.0758116832
  X        -1.4790755827        1.7785264509        1.1621878904
  X         0.1140679953        0.6380124271       -1.0369537364
  X        -1.3727718755        1.2173618546        1.5202754798
  X         0.7942672757        0.5121520649       -0.9644713234
  X         1.1586038276       -0.0377533941        3.0665547013
  X        -1.0269371035        1.1721039600        0.9387438542
  X         0.2526253035        0.4122425651       -0.5333828280
  X         0.8768986281       -0.3816524206        2.5294403352
  X         1.5121123664       -0.2060288728        2.6945525332
  X         2.2544763232        2.6914412584        1.5053109035
  X         1.7089008585        2.9872545773        1.2097921503
  X         2.2001737611        2.4498817493        0.8660352933
  X         1.2244009123        0.3561208381        2.5075231502
  X         1.8277546057        2.3540979852        1.4246046123
