     224
 Particles+Wannier centers. Iteration:1_2100
  O         1.0655631065       -0.1282668699        2.8076483066
  H         1.3597904876        0.5077703249        2.1461135328
  H         0.1377796421       -0.5447850389        2.5528271476
  O         0.9803953629        0.7590477290       -4.3017692840
  H         0.8763098199        0.6285851906        4.8650278232
  H         0.8401149637        1.7232035352       -4.1836996111
  O        -3.7910407400       -4.9161240817       -4.9928884297
  H        -4.6077261226        4.9807763263        4.5652004072
  H        -3.8736776038       -3.9940838727       -4.6759961863
  O        -4.1361177339       -0.4828044937        1.1763013717
  H        -3.3952125964        0.0860283932        0.9002869834
  H        -4.4267448324       -0.2038193409        2.1069888597
  O         0.5354733734        3.5877848679       -3.7857281311
  H         1.4918909088        3.9592471881       -3.6729717721
  H         0.0554945319        3.9675714015       -4.5560276334
  O        -0.0395133155       -2.8460078572        4.3175868815
  H        -0.4882455769       -2.4703061216        3.5077883381
  H        -0.3758165060       -3.7949434044        4.3780838373
  O        -3.9375356453       -4.6042538427        1.1543643295
  H        -4.3731790302       -4.2394444400        1.9263106127
  H        -4.1366526936       -3.9405512262        0.4798514449
  O         0.3933907193        0.6228795874       -0.5050953902
  H         0.9484806133        1.4316345466       -0.6012098766
  H         0.4702147338        0.0502683705       -1.2900883748
  O        -1.3255832383        4.4471285908        4.0446366525
  H        -1.5009152219        4.5512349483        3.0805233941
  H        -2.2664008640        4.6202203026        4.3946060152
  O         2.7030152722       -3.1523114998        4.7662495202
  H         1.7816029549       -2.9218643604        4.5572749258
  H         3.0840358264       -2.3376438141       -4.7635740668
  O        -1.2359467189       -1.7071509489        2.0086791719
  H        -2.1512910091       -1.4651944095        1.8187398785
  H        -0.9197994748       -2.4432980015        1.3870481046
  O         2.3145032651       -2.9638162246        0.5163332087
  H         3.0625155057       -2.4564063301       -0.0415534994
  H         2.4619717692       -2.6978327491        1.4314055658
  O        -1.4066733964        1.6927016706        3.7377030804
  H        -1.4854244108        1.3877377710        2.8223012066
  H        -1.3052075017        2.6736025462        3.7337141177
  O        -3.7839968866        0.6050113716       -3.0358753449
  H        -4.0011955106        0.8106107992       -3.9129381849
  H        -2.9454597139        1.0884009879       -2.8835889967
  O        -4.1274468299        0.9650878157        3.9250180207
  H        -3.1742927063        1.1690768097        3.8251371118
  H        -4.5399943587        1.8528281944        3.9721602072
  O        -3.2282607651       -1.7577316096       -4.4663483652
  H        -2.2112872291       -1.6728169401       -4.2437267465
  H        -3.6634800930       -1.0906589213       -3.9238422614
  O        -1.9553164686        1.3229092846        0.9368072707
  H        -1.5908210845        2.1753024614        1.2118514879
  H        -1.1621745226        1.0083867060        0.3760570021
  O         3.3013023603        2.0809086585        1.6184658571
  H         4.1352771423        1.7287364112        1.3377483273
  H         2.8270956025        2.2999030978        0.7845582331
  O        -3.8034603535        3.9036620876       -2.3935889653
  H        -3.1240263645        3.1679001413       -2.3421950131
  H        -3.7994555350        4.1884415682       -3.3434800069
  O         3.7197541475       -0.7700311692       -4.5212662301
  H         2.9301020916       -0.1423313641       -4.3980836679
  H         4.1452075986       -0.4449408752        4.7343531661
  O        -0.0505386963       -3.8605345641       -0.0493661092
  H        -0.1709712615       -3.6263076440       -1.0159608962
  H         0.9024336883       -3.6725181471        0.1990327153
  O        -4.0500121546       -3.4509653652       -1.7831022155
  H        -3.2522827343       -3.0087437227       -2.2084949172
  H        -3.8803489111       -4.4037571276       -2.0585814792
  O         4.0731940189       -1.5678160379       -1.1203942434
  H         4.7714831562       -1.2269885724       -0.5925228348
  H         4.6038225884       -2.2819173804       -1.5615671447
  O        -1.2005409642        2.1732830269       -2.3899526986
  H        -0.7761196057        1.7959850872       -1.5588177917
  H        -0.5197021256        2.7327472919       -2.8390175321
  O        -0.7175300314       -1.2566070083       -3.3651256377
  H        -0.3234741046       -1.7508011366       -4.1274475291
  H        -0.2726900932       -0.3811138773       -3.5952076532
  O         1.1549222736        3.2078737560       -0.4357043010
  H         2.0022570108        3.4776226538       -0.8012117071
  H         0.6263351988        4.0072009016       -0.4853107488
  O         4.3555051387        3.4251998242        3.8292247066
  H         3.5992060306        3.6480498449        4.4215824601
  H         3.9400882603        3.1119348075        2.9887510313
  O         3.7226736884        4.7023476735       -0.8192859728
  H         4.5525373776        4.5241278647       -0.2933380755
  H         3.3023045734       -4.5817323390       -0.2986322768
  O         4.9117717220       -3.0785869307        2.9346086539
  H        -4.6647133341       -2.1650381052        2.8710227707
  H         4.0885850478       -2.9409691871        3.4339565261
  O         4.2268888213        1.5039347843       -1.2559920519
  H         4.3324071883        0.5973512961       -1.5949827270
  H         4.9997576672        2.1040366828       -1.4973214317
  O         3.0437176856        4.4687388659       -3.8847189013
  H         3.4440196120        4.7308880093       -3.0365363534
  H         3.0445322543       -4.7505218627       -4.4110539964
  O        -1.5047785575        4.1510016392        1.3724400862
  H        -0.7082251030        4.5661581248        0.9658814053
  H        -2.2238580384        4.7075235052        1.0206357704
  X        -3.8420067683       -4.4350285461       -4.8395829369
  X        -3.9719718700       -3.9268126308       -1.9305516587
  X        -3.8091222178        4.9973584360       -4.7236485777
  X        -3.5185275063       -4.9493217631        4.9163093736
  X        -3.3204083992       -2.0567078548       -4.3621497756
  X        -3.6304979208       -3.2201399695       -2.0025161700
  X        -4.3204461845       -3.3291502583       -1.9120240401
  X        -4.2115633455       -5.0008876684        4.8332519533
  X        -2.7264919945       -1.7084366186       -4.3521141383
  X        -4.0066719904       -3.4428032968       -1.4704351689
  X        -3.7949041439        4.0321214900       -2.8843254151
  X        -3.4479069424       -1.4100884094       -4.1754003493
  X        -3.2691295230       -1.6859844215       -4.7577367433
  X        -3.7010208360        4.1697856295       -2.2321083288
  X        -4.0794683172        3.7810767039       -2.3317480755
  X        -3.4497061263        3.5316944714       -2.3739789509
  X        -5.0092063939       -3.2709386558        3.0893569658
  X         3.2546589551        4.6081226699       -3.4474460667
  X         2.7187944123       -3.4485389060        4.9439481249
  X        -3.7186584458        0.2949897658       -3.0431267060
  X        -1.7904342426        4.5289792163        4.2214359677
  X         3.0482772396        4.9074793765       -4.1407079500
  X         4.8470272230       -3.1539870753        2.6367617642
  X        -4.0459863457       -4.2444706928        0.8037537807
  X        -3.8936192110        0.7274887403       -3.5085090663
  X         3.2208324820        4.2629834868       -4.0364490160
  X        -4.9343155265       -2.5922546492        2.9146104828
  X        -4.1496431144       -4.4180236203        1.5540544585
  X        -1.0385259165       -1.2473537902       -3.4465890580
  X        -3.3452495652        0.8597519769       -2.9663190844
  X         2.8684712616       -2.7695498842       -5.0469077559
  X         2.8709523644       -3.1318336663        4.4845887449
  X        -3.6132851775       -4.6193806622        1.1856718850
  X        -3.9972298999        0.7211508480       -2.8503797455
  X         3.9154632657       -0.7167284916       -4.3022398937
  X         4.3325709494       -1.9287155613       -1.3527444921
  X        -0.2157580888       -3.3328967765        4.3413519771
  X         4.4912040457       -2.9880956073        3.1848329213
  X        -4.0923197494       -4.8563991518        1.0669601261
  X         2.7077133331        4.3935110854       -3.8199414631
  X        -0.5068648554       -1.5207029208       -3.7505501605
  X        -1.1204156990        4.6795676840        4.1559065606
  X         3.7946645584        4.7998755308       -1.1109352533
  X         2.2318928103       -3.0299921907        4.6714075484
  X        -0.6123279831       -1.3655736061       -3.0933233169
  X         3.5912630619       -1.0912539852       -4.5802405970
  X        -1.4073479556        4.5096312820        3.5627119401
  X         4.5134404888        3.7040887907        3.7900479170
  X        -0.1471054765       -2.6866792678        4.5773551628
  X         0.2864407973       -2.8625836360        4.2687611961
  X         3.9282728694       -0.6006096802       -4.9710575186
  X        -4.1685413603        0.8427340078        4.2079253119
  X         3.9779942653       -1.3559630613       -1.3142731547
  X         4.4426018078       -1.3848545568       -0.8407474739
  X         4.1518647076        4.6153108520       -0.5459300085
  X         0.3070011476        3.8057512319       -4.1892011082
  X        -1.2571324801        4.1278247756        4.0846971583
  X        -0.5094202612       -0.8106141664       -3.4708420915
  X         3.5184577756       -4.9815250125       -0.5536772439
  X        -0.2655484517       -2.6674722870        3.9035407764
  X         4.5114999888        3.1682306932        3.9503419829
  X        -4.3315352708        1.4305119537        3.9400265795
  X         3.3179248261       -0.4484696902       -4.4712262194
  X         3.9498899002        3.5294828765        4.1267429076
  X        -0.8547212387        2.4491563330       -2.6012443159
  X         0.5745188334        3.2761664789       -3.8646665863
  X        -3.6449867688        1.0711593768        3.8695116954
  X         0.3506283164        3.6265849220       -3.5217378966
  X         3.8537844628       -1.7350581059       -0.8955559151
  X        -0.0969409785       -3.7359594639       -0.5602407977
  X         3.5180829246        4.4582511028       -0.7726399380
  X        -4.2364787367        0.8097732706        3.6567141638
  X        -1.2599199847        1.9265759679       -2.5674115064
  X        -1.8660258854        4.4296096404        1.1780293890
  X         0.9813579113        3.7870629067       -3.7402565407
  X        -4.0097383339       -0.7660456727        1.2250415124
  X        -1.4569489637        2.3569836550       -2.3067495957
  X        -1.0962155052       -2.0798081204        1.6797787200
  X         4.6415886416        1.7936601496       -1.3930701353
  X        -0.2338910843       -3.6637546223        0.1219539694
  X         4.1391927295        3.2826008091        3.4011688392
  X        -0.0989786138       -4.1887851952       -0.0242190025
  X        -4.2780531868       -0.3246724009        1.6538283197
  X        -1.4907670969        4.2289693172        1.6979194650
  X        -1.2195413945       -1.8395652398        2.3074548937
  X         4.3074432153        1.0349311422       -1.4422309760
  X         2.6599238704       -2.7163369010        0.2564749348
  X        -3.7580605040       -0.1804997774        1.0518046388
  X        -1.7172864804       -1.5984926442        1.8982362347
  X        -1.7109939086        1.6362377994        3.8480771215
  X         0.4185980118       -3.7712524747        0.0511251969
  X        -1.0863956020        4.3599813657        1.1588442066
  X        -0.9751530419        1.9947035222       -1.9580357177
  X        -4.3727963133       -0.4563066077        0.9802689437
  X         4.2329563254        1.4823590422       -0.9434522615
  X         2.3948091710       -3.2771047673        0.4980173724
  X         2.0082574987       -2.9018399195        0.4259896457
  X        -1.3550632512        2.1918731053        3.7096267379
  X         0.7367536443        0.5899423410       -4.1471120425
  X        -1.5296038762        3.8399419989        1.2856953533
  X         1.2905864482        0.6898762138       -4.2391032070
  X        -1.0505557024       -1.4505957006        1.9635508035
  X        -1.1644217721        1.5668080661        3.8663954246
  X         0.9086634874        1.2530926761       -4.2488225948
  X         2.3956941566       -2.8198318855        1.0031710820
  X         3.9756878861        1.6216057588       -1.3858746113
  X         0.9217124223        0.7004085685       -4.7934623931
  X        -1.4350404504        1.5535855071        3.2490199769
  X        -2.2163051433        1.3502018828        0.7714354948
  X         0.8744290992        3.6303445551       -0.4699394284
  X        -1.9505933833        1.1453395216        1.2005082334
  X        -1.7742520419        1.7675143178        1.0796478029
  X         1.5908559499        3.3542671457       -0.6341776952
  X         1.0296467832        2.9642877515       -0.6075203999
  X        -1.5650011341        1.1644247017        0.6502511064
  X         3.7459876113        1.8982227661        1.4604148884
  X         0.4467752251        0.3337118628       -0.9266263674
  X         1.2600464735       -0.3591112819        2.7829444537
  X         3.3632205483        2.3566088120        1.7926083718
  X         1.2104590275        3.1624130144       -0.1399468243
  X         0.5965952653       -0.3122768642        2.6613865061
  X         0.0731863621        0.7422894984       -0.5054072504
  X         3.1471509352        1.8520807863        1.7442553003
  X         1.0320098318        0.0242668426        3.0888052858
  X         0.4800612608        0.4755558634       -0.2656006505
  X         3.0666041024        2.1993277591        1.1771126148
  X         0.6870893558        1.0194869890       -0.5773673959
  X         1.1931226544        0.2127240958        2.4440450155
