     224
 Particles+Wannier centers. Iteration:1_0
  O         0.8050005000        0.7000000000        3.2350000000
  H         1.4750005000        1.2800000000        2.8650000000
  H         0.8550005000       -0.0900000000        2.7150000000
  O         0.4050005000        0.7500000000       -4.1350000000
  H         0.6350005000        0.8900000000        5.0450000000
  H         0.3150005000        1.6300000000       -3.7750000000
  O        -3.6249995000        3.2200000000       -4.4850000000
  H        -4.3449995000        3.0300000000        5.0250000000
  H        -3.8849995000        4.0300000000       -4.0450000000
  O        -3.3149995000       -0.8200000000        1.2850000000
  H        -2.8449995000       -0.0800000000        0.8950000000
  H        -3.8249995000       -0.4300010000        1.9850000000
  O         0.3350005000        3.4500000000       -3.5850000000
  H         1.1750005000        3.8700000000       -3.7750000000
  H        -0.2749995000        3.8600000000       -4.1950000000
  O         0.2350005000       -3.1900000000        4.3450000000
  H        -0.1449995000       -2.7200000000        3.6050000000
  H        -0.3449995000       -3.9400000000        4.4750000000
  O        -3.4649995000       -4.0600000000        1.1650000000
  H        -3.8549995000       -3.8100000000        1.9950000000
  H        -2.9949995000       -3.2800000000        0.8650000000
  O        -0.5949995000        0.6700000000       -1.1950000000
  H         0.3449995000        0.8300000000       -1.0350000000
  H        -0.6450005000       -0.2700000000       -1.3850000000
  O        -1.1149995000        4.2500000000        4.2250000000
  H        -0.8249995000        4.4700000000        3.3350000000
  H        -1.6349995000        3.4600000000        4.1150000000
  O         2.9250005000       -3.0100000000        4.5050000000
  H         1.9850005000       -3.2100000000        4.4450000000
  H         2.9550005000       -2.1700000000        4.9550000000
  O        -1.2249995000       -2.2300000000        2.2350000000
  H        -2.1549995000       -2.0400000000        2.1850000000
  H        -0.9750005000       -2.4500000000        1.3350000000
  O         2.0650005000       -3.2900000000        0.9050000000
  H         2.8750005000       -2.7800000000        0.8450000000
  H         1.9650005000       -3.4600000000        1.8450000000
  O        -1.9449995000        1.9400000000        3.3350000000
  H        -1.9849995000        2.0500000000        2.3850000000
  H        -1.1049995000        1.5200000000        3.4950000000
  O        -4.7649995000       -1.6900000000       -3.1250000000
  H         4.5450005000       -1.3700000000       -3.5550000000
  H        -4.3249995000       -0.8900000000       -2.8250000000
  O        -4.3849995000        0.4100000000        3.6950000000
  H        -3.5549995000        0.8300000000        3.9150000000
  H        -5.0449995000        0.9900000000        4.0650000000
  O        -3.3449995000       -4.1500000000       -3.7050000000
  H        -2.7349995000       -3.9900000000       -4.4250000000
  H        -3.9049995000       -3.3800000000       -3.6950000000
  O        -2.2049995000        2.0500000000        0.6650000000
  H        -2.1949995000        3.0000000000        0.7050000000
  H        -1.4249995000        1.8200000000        0.1650000000
  O         2.5750005000        2.2400000000        1.6950000000
  H         2.9850005000        1.5300000000        1.2050000000
  H         1.9650005000        2.6500000000        1.0850000000
  O         4.3450005000        2.1400000000       -1.8450010000
  H        -5.0449995000        1.9800000000       -2.4650000000
  H         4.5250005000        3.0100000000       -1.4850000000
  O         2.9150005000       -0.4200000000       -4.2250000000
  H         1.9950005000       -0.2000000000       -4.1250000000
  H         3.2650005000        0.2700000000       -4.7850000000
  O        -0.7049995000       -2.9900000000       -0.6050000000
  H        -1.1049995000       -2.5700000000       -1.3650000000
  H         0.1950005000       -3.1900000000       -0.8850000000
  O        -4.6649995000        4.8100000000       -1.5150010000
  H        -4.2149995000       -4.9200000000       -2.2750000000
  H        -4.2049995000       -4.9100000000       -0.7650010000
  O         4.4250005000       -2.0300000000       -0.6250000000
  H        -4.8349995000       -2.0600000000       -0.1650000000
  H         4.6650005000       -2.0100000000       -1.5550010000
  O        -3.2749995000        0.8200000000       -2.9750000000
  H        -2.4749995000        0.8400000000       -2.4550000000
  H        -3.2849995000        1.6700000000       -3.4250000000
  O        -0.8249995000       -1.7999990000       -3.0050000000
  H        -0.8549995000       -0.9300000000       -3.4050000000
  H        -0.2450005000       -2.3000000000       -3.5650000000
  O         1.3650005000        3.2400000000       -0.7149990000
  H         2.0550005000        3.8600000000       -0.9650000000
  H         0.8250005000        3.1400000000       -1.5050000000
  O         3.9550005000        2.3800000000        4.6150000000
  H         3.4650005000        3.0600000000       -5.0250000000
  H         3.6050005000        2.3800000000        3.7250000000
  O         2.8050005000       -4.8100000000       -1.6850000000
  H         3.7550005000       -4.8900000000       -1.6350000000
  H         2.5550005000       -4.3500000000       -0.8950000000
  O        -4.6149995000       -2.9700000000        3.6550000000
  H        -4.2849995000       -2.1700000000        4.0750000000
  H         4.5750005000       -3.0300000000        3.9350000000
  O         2.4750005000        0.5000000000       -0.7149990000
  H         3.1050005000       -0.2200000000       -0.6550000000
  H         2.9150005000        1.1600000000       -1.2450000000
  O         2.9050005000        4.6700000000       -4.4550000000
  H         2.9850005000        4.9600000000       -3.5450000000
  H         3.1450005000       -4.6700000000       -4.9750000000
  O        -1.0549995000        4.6100000000        1.1350000000
  H        -0.5949995000       -4.9600000000        0.4850000000
  H        -1.7249995000       -4.9000000000        1.4850000000
  X        -3.6386032528       -3.7485903677       -3.7144625396
  X        -3.5243848545       -4.4104772783       -3.7686981533
  X        -3.1973836568       -4.1458552962       -3.4375954992
  X        -3.0234603594       -4.0620038233       -4.0857611692
  X        -4.8735977332       -1.8303084757       -2.8533301383
  X        -4.4302065106        5.0042926238       -1.9084888367
  X        -4.4461398437       -2.5385312831        3.8812821171
  X        -4.5821013770       -1.8618685238       -3.3242826637
  X        -3.7779011706        3.6431125143       -4.2517870994
  X        -4.5392526421       -1.2727984292       -2.9781588933
  X         4.9310542592       -1.5187763752       -3.3550765366
  X        -4.5994986390       -2.9317641731        3.3382758469
  X         5.0186232616       -2.9887998279        3.7999095708
  X        -4.9805650013        4.9242922716       -1.5169456057
  X        -4.4203704612        5.0144675277       -1.1253995628
  X        -3.3771440712        3.2832005733       -4.6409090614
  X        -3.6214595622        2.9734584955       -4.2601218706
  X        -4.4645652333       -3.2030022466        3.7782110953
  X        -4.0053183997        3.1307810608       -4.7970580816
  X        -4.6252811067        4.5005665918       -1.5131712319
  X        -1.0984384531       -1.9249465189       -3.0326153263
  X         3.0381303093       -5.0417804939       -4.7217916032
  X         3.0613163172       -3.2428368333        4.6892095570
  X        -3.6682946856       -3.9181263160        1.5932208500
  X        -3.6838269599       -4.1275544989        0.9506397649
  X        -3.2439587861        0.5985566818       -3.1807038550
  X         2.9663198413        4.8260302480       -3.9846254629
  X        -0.5062554614       -2.0580966179       -3.3008105235
  X         2.5981157107        4.6348466337       -4.4845954844
  X        -3.2218203411       -3.6325129453        1.0147164110
  X        -3.2739834101        1.2602765117       -3.2009857981
  X         4.5526511184       -2.0290008148       -1.0973558762
  X        -3.2370642139       -4.2659980292        1.2308903141
  X        -0.7056386645       -1.7755551478       -2.7074506228
  X         3.2884542157       -4.8368715468       -1.6528642711
  X        -1.2860072128        4.4981766735        4.3145623313
  X        -3.5208778424        0.8102626203       -2.7822601245
  X         3.0480701163       -2.9679589209        4.2175059712
  X        -0.0705958238       -3.5877450672        4.4006051822
  X         2.9361303886       -2.5774598330        4.7447814060
  X         3.0962597828        4.4030785238       -4.5163087864
  X        -2.8482763110        0.8384487516       -2.6978349289
  X        -0.8355134673       -1.3456159234       -3.2165157864
  X         4.8862118881       -2.0484366647       -0.3905395153
  X         2.7220006152       -4.6684085581       -1.9553668129
  X        -0.9105241797       -2.7740111612       -0.9982693260
  X         0.1983967595       -3.0158437629        4.5960603130
  X         2.4506430595       -3.1051078337        4.4701494267
  X         4.2715736956       -2.2917509024       -0.5536839117
  X         0.5453870172       -3.2909445712        4.2761837976
  X        -0.8586244645        4.1814419893        4.4046977178
  X         2.6795883963       -4.5536211905       -1.2769296629
  X        -1.3824248394        3.8590408211        4.1662569416
  X        -4.4015273350        0.1362086851        3.8416175046
  X         0.0194236439        3.6727280338       -3.8960497163
  X         4.7238220440        2.0687655619       -2.1811556997
  X         2.9405961778       -0.7104893060       -4.3937303055
  X         0.0425078140       -2.9546738990        3.9621149115
  X        -0.8367360524       -3.2646822676       -0.5603888547
  X         2.6973285146        4.9858981433       -1.6289260580
  X         3.6974993247        2.7158738846        4.8467460500
  X         4.2994703250       -1.7494557326       -0.5589076495
  X        -0.2259772511       -3.0862209389       -0.7644916245
  X        -1.7159694521       -2.1535924889        2.2091017468
  X        -3.9575781732        0.6344447025        3.8218902616
  X        -0.9576692643        4.3555742478        3.7516916785
  X         0.7751003876        3.6717030192       -3.6933087354
  X         4.4441183230        2.6005241862       -1.6621660541
  X        -4.7324880326        0.7181507144        3.8876082425
  X         0.2658613323        3.5199036806       -3.2868470552
  X         3.0611535086       -0.4033793209       -3.9551790735
  X        -3.5085902913       -0.9311666112        1.0699065601
  X         4.2657845756        2.4698118129        4.5976376396
  X         4.0721975217        2.1496124398       -1.9938792427
  X        -0.6932974309       -2.7864166505       -0.3583829932
  X         3.0911345795       -0.0519312298       -4.5281945559
  X        -1.1528340465       -2.4805009320        2.4336107315
  X         3.8947759040        2.0840104640        4.7258903637
  X        -1.3981837883        4.9293843739        1.3139288034
  X        -4.4049105730        0.4130418466        3.3755090294
  X         0.3573932392        3.1335486752       -3.6666750679
  X        -3.1032897524       -1.0237311444        1.4220443574
  X        -1.1085827185       -2.3509545987        1.7610206213
  X         2.4428213968       -0.3079702605       -4.1790226733
  X        -3.5796309698       -0.6090017193        1.6464423856
  X         4.3769944075        1.9392124575       -1.6216616506
  X        -1.9257619023        2.2401457626        3.4743421826
  X        -0.8167839603        4.8963319561        0.7914567236
  X        -1.0941645733       -1.9669032930        2.2915671221
  X         3.7658308464        2.3917875309        4.1444134493
  X        -3.0653156376       -0.4275136981        1.0870834747
  X        -1.2106540884        4.3725632497        0.9908173772
  X         0.1259677486        0.5998540128       -4.1236306623
  X         2.4932669345       -3.0203712111        0.8895420147
  X        -2.1800061628        1.7360818074        3.4243409455
  X         0.6694882963        0.6045358609       -4.0130604136
  X         2.1190002293       -3.5638631519        0.7584323080
  X         0.3640650899        1.2028664613       -3.9518319221
  X        -0.8582495904        4.5514217783        1.3714770133
  X         2.0214737046       -3.3797801275        1.4117287262
  X        -1.9538682462        1.9952026869        2.8515597871
  X        -2.2045533031        2.5482627825        0.6708104663
  X         0.5179232027        0.8379439112       -4.6128028722
  X         1.8344975768       -3.1118667256        0.8242121988
  X        -0.6149392146        0.1663651362       -1.2850269180
  X        -1.4999810964        1.7178520114        3.4108586771
  X        -2.4540187698        1.9380529798        0.5225685277
  X        -0.6837830092        0.8120997930       -1.4547917258
  X        -2.1466222246        1.9669835384        0.9800414919
  X         1.7219448889        3.5522090153       -0.8529640103
  X        -0.7476271623        0.7304339861       -0.9176737305
  X         1.0854083716        3.1918855301       -1.1361142368
  X        -1.7900907375        1.9457046781        0.4078376910
  X         2.7025570524        0.8317326444       -0.9983744607
  X         1.4885938248        2.9663562060       -0.6480844241
  X        -0.1053216251        0.7438333954       -1.1210486666
  X         2.8076815000        0.1151424249       -0.7027202534
  X         2.1946231663        0.4100061840       -0.8391711489
  X         1.1968795180        3.3777571514       -0.5000781499
  X         0.8774941354        0.6350534371        3.5448031980
  X         2.4827611113        0.6141813921       -0.4252419300
  X         0.5247058779        0.8260001216        3.1788089015
  X         2.7909912867        2.4387537100        1.7793079173
  X         0.8440697691        0.2741054335        2.9575706688
  X         2.3965765639        2.0928543449        1.9387851979
  X         2.7866717280        1.8682037316        1.4310980130
  X         1.1538467941        0.9903705857        3.0435728869
  X         2.2605204114        2.4469911360        1.3758970094
