     224
 Particles+Wannier centers. Iteration:1_250
  O         0.8577425947        0.3939554553        3.2833726591
  H         1.3386062814        0.8869496170        2.5767808752
  H         0.4501679353       -0.3964119774        2.9433934821
  O         0.7332912271        0.4520669647       -4.1059920704
  H         0.6648666655        0.4679426103        5.0371528057
  H         0.6337496717        1.3914496533       -3.8494569726
  O        -3.8554767628        3.2600606361       -4.4374647074
  H        -4.3223314719        3.2599568212        4.8005355358
  H        -3.5764291779        4.1936572123       -4.2289015238
  O        -3.3262419453       -0.3985032908        1.1595512127
  H        -3.0527018909        0.5429350387        1.0133384397
  H        -3.7577676536       -0.2889060494        2.0174931522
  O         0.3227051022        2.9898473419       -3.3114029835
  H         1.0547180047        3.6395278680       -3.2913615200
  H        -0.2594981111        3.2213202529       -4.1368010978
  O        -0.4409241077       -3.2240856496        4.6647630524
  H        -0.7485131309       -2.8684700470        3.8197267141
  H        -0.5895674115       -4.1712977586        4.5705145734
  O        -3.4309582459       -3.5669129736        1.2066043102
  H        -3.9162583295       -3.1571479906        1.9630122290
  H        -3.0039388783       -2.8435202048        0.7626919977
  O        -0.1565644298        0.2178779210       -0.7186658744
  H         0.9140266385        0.3297639444       -0.8723385582
  H        -0.3652019513       -0.3477566689       -1.4697253972
  O        -1.2273954940        3.9661399577        4.3130746535
  H        -0.9464194830        4.1170773006        3.3987879051
  H        -2.2403495647        3.8888175089        4.2568122815
  O         2.4918780273       -2.6279923235        4.3046283765
  H         1.5702797358       -2.5865717523        4.3074821240
  H         2.7860929712       -1.7220507007        4.7338187518
  O        -0.7550690670       -1.7786695001        2.2812295001
  H        -1.6836776705       -1.4640351100        1.9358916852
  H        -0.3305043670       -2.0291137102        1.4512163463
  O         2.6041831426       -2.8845286599        0.1697449005
  H         3.4967045616       -2.4870071370        0.0944704453
  H         2.5230989490       -3.2592794292        1.0701018148
  O        -1.9040968081        0.9656167988        3.5703922576
  H        -1.6245742538        1.1566119440        2.6492984990
  H        -1.0731226687        0.8029672454        4.0102000895
  O        -4.3861361176       -1.6898488498       -3.1724742344
  H         5.0363839919       -1.2736093262       -3.7374363743
  H        -3.5484730819       -1.1451827627       -3.4107566535
  O        -4.5673336279        0.2066794522        3.7767792265
  H        -3.6359704624        0.4219200603        4.1525928395
  H         5.0161209039        1.0234837527        3.9227671304
  O        -3.1414807032       -4.2565557058       -4.0504986427
  H        -2.2509289760       -3.8694182994       -4.0915685650
  H        -3.7594039830       -3.4854506460       -3.8832380963
  O        -1.6672403426        1.8022062488        0.8011039408
  H        -1.4655523750        2.7667887773        0.8189742298
  H        -0.9863446054        1.2497725030        0.3050172000
  O         2.0836191954        2.0618569390        1.5015830385
  H         2.5363425741        1.5116294169        0.8539178844
  H         1.4912117046        2.6111628702        0.9632177037
  O         4.4222271767        1.9004494911       -1.9617291237
  H        -4.7771831457        1.5988982462       -1.9154440855
  H         4.2678281703        2.2653747972       -2.8104264005
  O         3.3310114869       -0.0922031638       -4.4855165083
  H         2.5648146882        0.1262633359       -3.9619105837
  H         3.4687473541        0.6926839687       -5.0310594997
  O        -0.2646242602       -3.1411966877       -0.5791920827
  H        -0.5314451901       -2.5894209313       -1.3399559426
  H         0.6842180809       -2.8668561571       -0.5039887701
  O        -4.5798538790       -4.7790954782       -1.1218489270
  H        -3.8336777176       -4.5392180877       -1.7595882084
  H        -4.3041959337       -4.3930096460       -0.2634353816
  O         4.7427480486       -1.3796241404       -0.4101465126
  H        -4.6139198250       -0.8571163059        0.0143734537
  H         4.9960978967       -1.4648375732       -1.4033423844
  O        -3.0766311599        1.0682841829       -2.8019679489
  H        -2.1854790538        1.2729490690       -2.4943248688
  H        -3.2140660132        1.8193162030       -3.4422606078
  O        -1.1622243046       -1.4480294476       -3.0353783339
  H        -0.4653435029       -0.7717169703       -3.3344685639
  H        -1.0812254288       -1.9511012570       -3.8759448643
  O         0.5989085191        3.4326174357       -0.2513079212
  H         1.2230107032        3.9900464407       -0.8286495157
  H         0.2801382470        2.7373278463       -0.8499190647
  O         3.6947047027        2.3809681846        3.9897249991
  H         3.1706685622        3.0543560141        4.4663183596
  H         3.2852290491        2.2876503204        3.1162391350
  O         2.7618104407        4.7092362165       -1.3100114369
  H         3.6291609356        4.2334054909       -1.2179903218
  H         2.9266393348       -4.4600547621       -1.0104798833
  O        -4.8276424764       -2.6684315398        3.4885715882
  H        -4.7659403961       -1.6862576968        3.4171626104
  H         4.2922145609       -2.8674452903        3.3818390196
  O         2.6135767973        0.1933092011       -0.9944852537
  H         3.1438827938       -0.6247679040       -0.6935620150
  H         3.3730376360        0.7077849133       -1.3962287087
  O         2.5976625996        4.6011878541       -4.4029405509
  H         2.7241922476        4.7495010179       -3.4532062732
  H         2.4995188330       -4.5619250797       -4.7554730335
  O        -1.4226754638        4.6072952797        1.5359187576
  H        -0.8622743416        4.5547673577        0.7723982367
  H        -1.9924414921       -4.7308711501        1.4216981721
  X        -3.4484840593       -3.8609381769       -3.9700123200
  X        -3.1537977982       -4.4416660571       -3.7955240981
  X        -3.2044308163       -4.3904110078       -4.3203245157
  X        -2.6730910071       -4.0434832041       -4.0682687252
  X        -4.3360954929       -2.0003755200       -3.2765226758
  X        -3.9627513849       -1.4129837982       -3.2984281630
  X        -4.4643111751       -1.6283005913       -2.8559356062
  X        -4.1816129332       -4.6460270175       -1.4453492585
  X        -3.7212622203        3.7292569623       -4.3520028040
  X        -4.7338817972       -1.4748982372       -3.4663655364
  X        -4.7502229079       -2.7421570337        3.7676569546
  X        -4.8316993243       -4.6306766043       -1.2151899674
  X        -4.0608111798        3.1820892544       -4.2385735792
  X        -4.4294444757       -4.5783011156       -0.6820306604
  X        -3.5954036420        3.0756419362       -4.4583319369
  X        -4.0888684396        3.2757103182       -4.9021869650
  X        -4.5795176392        5.0140582743       -1.0952109132
  X        -4.6632192132       -2.7912543579        3.2147767656
  X        -1.1256112597       -1.7208086689       -3.4633815739
  X        -0.6304951781       -3.1121206454        4.9096888695
  X         4.7695478092       -2.7584311477        3.4227964915
  X         2.8474201713        4.4571626542       -4.5308723312
  X        -3.6432777506       -3.6875585773        0.9970121138
  X        -4.8096582093       -2.1589280877        3.4447301852
  X        -3.6687342197       -3.3504564549        1.5831896222
  X        -1.4418724460       -1.3150384825       -3.0339082409
  X        -0.5205059878       -3.7191653588        4.6125479260
  X        -0.1295369185       -3.1756480521        4.6680407585
  X        -3.1922526841       -3.7575330479        1.3185129265
  X        -1.0416073069       -1.6210952325       -2.7858758693
  X        -3.1399964097        1.4465965304       -3.1313553957
  X        -3.2061324907       -3.1701308110        0.9773694631
  X        -1.7505228079        3.9283925545        4.2697107676
  X        -3.0697999433        0.7975025236       -2.9548310408
  X         2.5504326896       -5.0159712936       -4.5767123512
  X         2.6699803828        4.6823409650       -3.9073012315
  X        -0.6103160698       -3.0508086444        4.2298110977
  X        -3.2795805688        1.1236795719       -2.5579360827
  X         2.5620060109       -2.8683979670        4.5077570649
  X         4.8749290390       -1.4174131762       -0.9025771748
  X        -0.8156034815       -1.0997078100       -3.1649274201
  X        -1.1702116239        4.2504302755        4.4545308527
  X         2.3167287254        4.4720308012       -4.4190560233
  X        -2.5978107613        1.1791581268       -2.6391369991
  X        -4.1100910865        0.3176746421        3.9806563909
  X         2.7245218398        4.7274319620       -1.6272521317
  X        -1.1041166861        3.7008052524        4.4429774074
  X         2.6042095750       -2.6367762536        4.0040518190
  X         2.6274947058       -2.1804473945        4.5194712927
  X         3.2331936195       -0.3432022628       -4.6844492912
  X        -0.4038564146       -2.8514601814       -0.9789735993
  X         4.3533517631        2.0822602589       -2.4278128034
  X         4.7238709440       -1.6745685881       -0.2824498464
  X        -4.6941420003       -0.0403830741        3.9250429543
  X        -4.9855500444       -1.1126532265       -0.2052601968
  X         3.2022286819        4.4665032244       -1.2441854493
  X        -4.5132626552        0.1747519072        3.4541352587
  X         1.9971463225       -2.5921028369        4.2977972687
  X         2.8544585984       -4.9199991736       -1.1530707462
  X         4.8955423694        1.7473321169       -1.9557327061
  X        -1.0844570592        4.0295837990        3.8375726440
  X        -1.7070231969        5.0038980982        1.4664433156
  X         3.5900938287       -0.1364645493       -4.3044892981
  X        -0.2742674265       -3.4359028575       -0.6561708708
  X         0.0388186151        3.1221157555       -3.7253388883
  X         4.2179294132        1.6313703081       -1.9139107258
  X        -0.4053887622       -3.0227998418       -0.3204121145
  X         3.3956530532        0.3211570446       -4.7677592428
  X        -4.8293629295        0.6268444049        3.8547167495
  X         4.4579339764       -1.2036251719       -0.4047319321
  X         0.7018344435        3.3333468454       -3.3113144778
  X         3.0518010805       -2.6853143255        0.1524888878
  X         2.9429722840        0.0314050770       -4.2060267102
  X         0.1548784687        3.0207794291       -3.0558733775
  X        -3.0601463279       -0.5804939318        1.2063450890
  X         2.5069886068        4.5680648088       -1.1358931241
  X         3.9926644402        2.4838050948        3.9568352195
  X        -1.2423718092        4.6382124710        1.8023640184
  X         0.2297160443       -2.9976748711       -0.5456666820
  X         4.3950152446        2.1322034029       -1.7718215278
  X        -1.5962536756        4.3501548014        1.5091209191
  X        -2.0847511369        0.6977910570        3.5834843088
  X        -1.2246880781       -1.6274655250        2.1058156838
  X        -3.5536988982       -0.3492478097        1.6042334556
  X         2.6068750637       -3.1391878386       -0.0271735714
  X         0.4538782391        2.6890916613       -3.3867106221
  X        -3.5610813785       -0.4854727347        0.9294014829
  X         3.4184302630        2.7250990754        4.2270092021
  X         2.5754759105       -3.0765810065        0.6559105460
  X         0.4808802446        0.2639373165       -3.9705408370
  X        -1.1281018561        4.5978826361        1.1310938017
  X        -2.0207771398        1.2211825070        3.6826441721
  X         3.6595750942        2.0896316417        4.1424075879
  X        -0.7918494532       -2.0421965794        2.4733044942
  X        -3.1935477789        0.0769805965        1.0847708778
  X         1.0365576638        0.3766484856       -4.0449066824
  X        -1.4609142851        0.8765156182        3.8050707054
  X         2.3799773131       -2.6704452892        0.1354922917
  X        -0.5341584020       -1.9141512717        1.8458603913
  X         0.6742926953        0.9249090056       -3.9857599337
  X         0.6839686768        0.4650485604       -4.5962032222
  X        -1.7573569566        1.0517077020        3.0977305769
  X        -0.5992489636       -1.5183864090        2.3907201452
  X         3.4796119368        2.3425882686        3.5382546873
  X         2.8554712217       -0.2294559234       -0.8542491891
  X        -0.2753674520       -0.0755221606       -1.1194730559
  X         0.8976144098        3.7028551512       -0.5452394065
  X        -1.9583126398        1.7438231075        0.6740548985
  X         2.9775491680        0.4445998694       -1.2073439376
  X         2.3549872615        0.1356620798       -1.1883823557
  X        -1.5491749294        2.2946692328        0.7858953978
  X         0.3452818859        3.6032937166       -0.1659431086
  X        -1.6388616566        1.7101469692        1.1107813078
  X         0.4371854718        3.0649651127       -0.5701430694
  X        -0.3040079520        0.5124711529       -0.7442524623
  X        -0.1996983314        0.0622748003       -0.4613045412
  X         1.0516763614        0.3119552174        3.5109687000
  X         2.5464349476        0.3452425022       -0.7258217198
  X        -1.3153630483        1.5572077427        0.5487852815
  X         0.7853523006        3.2810792019       -0.0102454182
  X         0.3461050620        0.2773732159       -0.7924770873
  X         0.6610096635       -0.0210621277        3.0872780271
  X         0.6161018807        0.5683893947        3.3801405164
  X         1.0950609939        0.6227205025        2.9189062702
  X         2.3013640077        2.2335189609        1.6576105806
  X         2.3212570139        1.7800728098        1.1548190027
  X         1.7895364110        2.3365525644        1.2345452268
  X         1.9023316210        1.8467781801        1.6843344227
