     224
 Particles+Wannier centers. Iteration:1_100
  O         0.8362118916        0.5605035547        3.1503143494
  H         1.4961616052        1.2362507927        2.6861120273
  H         1.1575955173       -0.3451647237        3.0418047230
  O         0.5448896694        0.5211345142       -4.0746332520
  H         0.9111306557        0.6026375401       -5.0489435668
  H         0.4011408244        1.5066052489       -3.8267416901
  O        -3.8440903507        3.1530251367       -4.5850900797
  H        -4.4816205186        2.9223097388        4.8311683942
  H        -3.7907409201        4.1011458206       -4.4836358113
  O        -3.3300973721       -0.5675752054        1.2202557958
  H        -3.4253477475        0.2615373605        0.7102011697
  H        -3.8016536862       -0.3920922755        2.1263220414
  O         0.3134698809        3.3538420953       -3.4341846912
  H         1.1776082657        3.7305911843       -3.6300106357
  H        -0.3155266026        3.6295285845       -4.1765950672
  O        -0.0236657698       -3.3018138231        4.5965461130
  H        -0.5010049974       -3.0488902451        3.7288755534
  H        -0.2689521861       -4.2806093008        4.7673161655
  O        -3.6546245718       -3.9035767386        1.2308418896
  H        -4.0027296140       -3.7587186363        2.1712136708
  H        -3.5772558904       -2.9887108902        0.9185430186
  O        -0.4174462471        0.5962167330       -1.0970206799
  H         0.6568817663        0.4998440688       -0.9543507290
  H        -0.6372917573       -0.2893013625       -1.4410117836
  O        -0.8342188129        4.3427001259        4.3049836895
  H        -0.5511982765        4.2687220509        3.3551318868
  H        -1.7981270319        4.0310566402        4.3871358991
  O         2.6289575953       -2.7983227687        4.5010098246
  H         1.5801697777       -2.8748259632        4.5671888464
  H         2.8460919242       -1.9985844899        4.9916287542
  O        -0.9666583426       -2.0877793463        2.3758082306
  H        -1.5260966782       -1.2563615098        2.1295086478
  H        -1.1776148857       -2.6112854996        1.5937142708
  O         2.1880500195       -3.3071315468        0.6039054432
  H         3.0737309087       -2.8597068581        0.3776404901
  H         2.1146494529       -3.1031682692        1.5758478297
  O        -2.0209229096        1.7721216158        3.4632224386
  H        -2.1105841180        1.9387603178        2.4371664936
  H        -1.1529264888        1.3646414453        3.5931452373
  O        -4.7792428919       -1.7717358291       -3.4464742333
  H         4.5271162854       -1.1404117774       -3.7025340556
  H        -3.9712146751       -1.2225129961       -3.6847798751
  O        -4.4522566085        0.1655154511        3.5951183709
  H        -3.5581241657        0.7503126024        3.6909047422
  H         4.9452273566        0.8502834240        3.7120465356
  O        -3.2639856612       -4.0930791197       -4.0035556560
  H        -2.4502477849       -3.8422742983       -4.4490400332
  H        -3.8512660209       -3.3269141346       -4.1280699182
  O        -2.0104670223        1.9542479419        0.7121839171
  H        -1.5272981198        2.8058585070        0.8882593059
  H        -1.4201572687        1.4950242770        0.0614902779
  O         2.4461390725        2.4201016479        1.7377917084
  H         3.1430857675        1.9005142824        1.3395089381
  H         1.8463450920        2.7617727794        0.9879563665
  O         4.4084503873        2.0341066542       -1.9976984711
  H        -4.9013330020        1.4641318742       -2.0703193393
  H         4.7453845118        2.9190850551       -1.9127487619
  O         3.1510662004       -0.4369830218       -4.1649576574
  H         2.2836504046       -0.1294862594       -3.6501173688
  H         3.4166732159        0.4045528564       -4.5684985588
  O        -0.6043808688       -3.2161960965       -0.5931791850
  H        -0.5800591017       -2.7799305886       -1.4559489899
  H         0.1623821367       -2.8786325379       -0.1076020401
  O        -4.6124536961        5.0059369618       -1.3408219984
  H        -4.0745635479       -4.7366507247       -2.1369422968
  H        -4.1879229744       -4.6970260454       -0.5597207922
  O         4.6108390948       -1.8299688168       -0.4374776952
  H        -5.0490235091       -1.0624891034       -0.0637421767
  H         4.9867428366       -1.9394060369       -1.3107334441
  O        -3.1709358356        0.8687426649       -2.7177751693
  H        -2.4218598456        1.2367221681       -2.2075299704
  H        -3.3576986139        1.6278076080       -3.4240034282
  O        -0.9852862685       -1.6660343154       -3.3366315543
  H        -0.2494208576       -0.9808494442       -3.4012522403
  H        -0.7622500128       -2.2170946825       -4.1016742487
  O         1.0508563549        3.0927285492       -0.5325993225
  H         1.5772190862        3.7986608403       -0.9954253627
  H         0.2807924870        2.7866190400       -1.0346388005
  O         3.7324121268        2.5415253692        4.2883779207
  H         3.4396312659        3.3418555166        4.9099480851
  H         3.3644787607        2.7553963825        3.4365115048
  O         2.6878418919       -5.0034763665       -1.7583473217
  H         3.7418252257       -5.0436428449       -1.5610349017
  H         2.3664006188       -4.2017833175       -1.3369259402
  O        -4.5089671089       -2.8686130037        3.7054152339
  H        -4.5516141445       -1.9293925786        3.4482286249
  H         4.6283864536       -3.0474814911        3.9057998319
  O         2.4954079348        0.3932115124       -0.7941845992
  H         2.9582597891       -0.4728147835       -0.8247456326
  H         3.1972033658        1.0697849472       -1.0974761814
  O         2.8353948572        4.6751630632       -4.3012393082
  H         2.9419944337        4.7687625751       -3.2530008022
  H         2.8580793875       -4.4811808464       -4.6387301901
  O        -1.1767359597        4.6129350308        1.3445765787
  H        -0.5022431078        4.6845664570        0.6401845224
  H        -1.9346495517       -4.8072241955        1.1541453123
  X        -3.5579831599       -3.7010346457       -4.0788160289
  X        -3.2119969147       -4.1201427397       -3.6880747461
  X        -3.3810419776       -4.3510711083       -4.1590190792
  X        -2.8276831527       -3.9537692350       -4.2373501833
  X        -4.7706623292       -2.0439292014       -3.6270122165
  X        -4.3601876995       -1.4838257587       -3.5754425423
  X        -4.3409440385       -4.9031813610       -1.7409047173
  X        -4.7808438774       -1.7915573992       -3.1222691519
  X        -4.3518990112       -2.8856441021        3.9611867704
  X        -3.8413817014        3.6523747693       -4.5404827430
  X         4.9484563841       -1.4705917353       -3.5802890722
  X        -4.4265452494       -3.0488484622        3.4259001848
  X        -4.9449242942       -4.9916673964       -1.3702675650
  X        -5.0038196510       -2.9565270661        3.8037432860
  X        -4.3939534603       -4.8819473641       -0.9426085982
  X        -3.9251271056        3.0155929475       -4.3096376675
  X        -3.5695111552        3.0861943073       -4.6921019236
  X        -4.5634333036        4.7004786773       -1.3342862647
  X        -4.5366867070       -2.3749745168        3.5642284564
  X        -1.2498581749       -1.5288058842       -3.3860463171
  X        -4.1797938514        3.0518839939       -4.9462508164
  X         2.8583598287       -4.9451816088       -4.4657010458
  X        -3.8319160484       -3.8376363712        1.6951969285
  X        -0.8691696215       -1.9536957278       -3.7315497515
  X        -0.1709645240       -3.1256862613        4.8302858862
  X        -3.8644867526       -4.0516023861        1.0413257669
  X        -0.9293720881       -1.8415542809       -3.0623322461
  X         2.5350536997        4.5897234273       -4.3198312508
  X        -3.6145374190       -3.4172877722        1.0731554952
  X        -3.3412305695       -4.0213858201        1.2516158679
  X         2.9156261978        4.7185563741       -3.8123118116
  X        -3.2508061282        1.2471646905       -3.0710163070
  X         2.7467068123       -3.0589671550        4.6696110588
  X        -3.0895843781        0.6102544822       -2.8565009088
  X         4.8129485737       -1.8791360155       -0.8894408721
  X        -1.3310890303        4.2004089979        4.3264339980
  X         3.1837526715       -5.0141682122       -1.6491202933
  X        -0.1348701804       -3.7806225403        4.6767773650
  X         0.3204065111       -3.2577720055        4.5587911290
  X        -3.4334226622        0.8881049126       -2.5205977397
  X         3.0690174740        4.4665617723       -4.4614563504
  X        -0.6065669256       -1.3233999577       -3.3655519916
  X         2.7353022492       -2.3826511968        4.7577057404
  X         2.1307998141       -2.8182777675        4.5312886824
  X         2.6745867280       -4.9944119018       -2.1066670320
  X        -0.8070569310        4.6747214206        4.3911365819
  X        -2.7734693422        1.0691304290       -2.4519754492
  X        -0.2577155786       -3.1981838992        4.1622297081
  X        -0.5775432502       -2.9795283662       -1.0414563211
  X         3.4114932914       -0.5398233809       -3.9643071574
  X         4.6780951388       -2.0696189785       -0.2626091356
  X         2.5314625386       -4.5696226902       -1.5550897443
  X        -0.6718366675        4.1386896083        4.4889343898
  X        -4.4725011919       -0.0398753848        3.8215065854
  X         2.7157379519       -2.7587080693        4.2004066026
  X         4.5937491711        2.5006612509       -1.9416372813
  X         4.2983822890       -1.7526914891       -0.4750498545
  X         0.0017936221        3.5099700466       -3.8105474382
  X        -0.8586322901       -3.1175850465       -0.4413363111
  X        -0.5510149492       -3.5135792959       -0.6349483672
  X         4.8251042931        1.7479455268       -2.0237157207
  X         3.0560799479       -0.6398404391       -4.4010100739
  X         2.5367347394        4.8445433404       -1.6055836956
  X        -4.0287991472        0.4478120989        3.6491765225
  X         4.8456403867       -1.4141200227       -0.2503537840
  X         3.5896741514        2.9188648377        4.5802760358
  X         4.2815543128        2.0204913684       -2.2634422036
  X         3.2863597936        0.0043295045       -4.3795077578
  X         0.7594501064        3.5573268234       -3.5497368962
  X        -0.7005570471        4.2928725523        3.8192422925
  X        -4.4424023257        0.0534139676        3.2689720850
  X        -1.0665675412       -2.2428991557        2.6504402723
  X         0.2161303138        3.4570768832       -3.1608205466
  X        -1.5409819475        4.9564111569        1.2355807698
  X         2.7421200740       -0.2938222069       -3.8982904068
  X        -3.4963866824       -0.7964496916        1.0690526151
  X        -0.1969749862       -3.0245208846       -0.3460083326
  X        -4.8178289333        0.5179647910        3.6434150739
  X         4.0650817132        2.5541909881        4.2591097695
  X         0.3458878098        3.0226745766       -3.4800163109
  X         4.2293234261        1.9395194869       -1.7241210505
  X        -1.0819507118       -2.3719493250        1.9654538157
  X        -2.0190298136        2.0446958348        3.6045565425
  X        -3.5639245245       -0.4708443255        1.6606162741
  X         3.6075749711        2.2631677448        4.3851900244
  X        -1.2496476012       -1.6676107036        2.2683096473
  X        -1.0400935996        4.6793882597        1.6272606310
  X        -3.0232523994       -0.6060428370        1.2779665729
  X         2.6383064427       -3.0763083934        0.4938747797
  X        -1.2989021396        4.3127199311        1.3015293129
  X         0.2786906865        0.3492204926       -4.0658806140
  X        -2.2712135206        1.5378600102        3.5377429721
  X        -3.3953144243       -0.1263206011        0.9590841502
  X         2.2264676336       -3.6083847534        0.5742273746
  X         0.8114432185        0.4140579614       -3.8984849123
  X        -0.6715427356       -2.0145781107        2.3463173526
  X         2.1538851992       -3.1983501308        1.1155585705
  X        -0.8288507283        4.6689756784        0.9720201455
  X         3.5388475722        2.6615675381        3.8405550636
  X        -2.0488857278        1.8526723816        2.9607507874
  X         0.4684323947        1.0084790947       -3.9556447570
  X         1.9534385545       -3.1505391415        0.4544723327
  X         0.7209264330        0.5628576423       -4.5605677745
  X        -1.5650544465        1.5544245635        3.5182991857
  X        -0.5342946738        0.1241222892       -1.2718501523
  X        -2.2826526802        2.0107163054        0.5792613115
  X        -1.7631875282        2.3887421724        0.7865026233
  X        -2.0033326616        1.8080808695        1.0080595161
  X        -0.4645752405        0.7980274156       -1.3258163133
  X         1.2932780640        3.4498503229       -0.7873845385
  X         2.7392331695       -0.0620374195       -0.8277337556
  X        -0.5705041580        0.6473054500       -0.8027743935
  X        -1.7078471694        1.7206902006        0.3936496924
  X         2.8436454404        0.7200160447       -0.9543612594
  X         0.6476200444        2.9507530206       -0.8037259386
  X         2.2167766982        0.3935218621       -0.9784231359
  X         0.9544677948        3.2164127764       -0.2517869157
  X         0.0922209854        0.5462080122       -1.0255027879
  X         0.8665648253        0.6092480602        3.4798857731
  X         1.2357573541        2.8587787916       -0.4963425312
  X         2.4677058385        0.4385213483       -0.5000153369
  X         1.0216461397        0.0820876408        3.0758791060
  X         2.5825349171        2.6529444465        1.9013145935
  X         0.5534883523        0.5848967582        3.0271791285
  X         2.8168981193        2.1484274863        1.5109233472
  X         2.1679359667        2.5870347299        1.3657706146
  X         1.1701812651        0.8689195814        2.9191240010
  X         2.2623754936        2.1926507903        1.9155957085
