     224
 Particles+Wannier centers. Iteration:1_1350
  O         1.2767055411       -0.2823249288        2.8985235325
  H         1.2120288881        0.6255188161        2.6602046709
  H         0.5918570567       -0.8381543768        2.3759399405
  O         1.0934096444       -0.3864906438       -4.3140843633
  H         1.1031594853       -0.3762376936        4.8441904859
  H         0.8714191650        0.5113037708       -4.1028341636
  O        -4.0699546059        4.4558074549       -4.9453998491
  H        -4.4689106277        4.0114104017        4.3560109582
  H        -4.0467009549       -4.6900657562        4.9576581907
  O        -3.5337862495       -0.5270997661        1.7214455508
  H        -2.9828196563        0.0377093637        1.1803485998
  H        -3.8536493589        0.0312574964        2.4603810635
  O         0.7437716791        2.4015988814       -4.4104566679
  H         1.5004561156        2.9022104011       -4.0011637809
  H         0.5446839023        2.9834966956        4.9737059276
  O         0.1048814842       -3.1935270792        4.3722039791
  H        -0.3266384147       -2.8011524276        3.5751350743
  H        -0.0416418777       -4.1582278027        4.3058665807
  O        -3.7038647757       -3.8497757004        1.8678553784
  H        -4.3959071616       -3.1343234462        1.6355032023
  H        -3.0500973571       -3.2473502998        2.2758896756
  O         0.3626887289        0.4431538252       -0.8053169204
  H         1.3504849345        0.3472737724       -0.6124148850
  H         0.0973045340       -0.4310370259       -1.2267904945
  O        -0.9525379907        4.1922012780        4.0564680880
  H        -1.1340735203        4.0764740305        3.0652570289
  H        -1.8150426636        4.1078451790        4.5052892400
  O         2.8725275532       -2.9240814573       -4.8742332745
  H         1.9256956564       -2.6489381104        4.9909976495
  H         3.3047370720       -2.2131905101       -4.4072661831
  O        -1.0715204014       -1.8970859401        2.0265681424
  H        -1.8164193161       -1.4179623038        1.8300849562
  H        -0.8247446722       -2.3251352492        1.1371700359
  O         2.3713869938       -3.0225814012        0.5003854526
  H         3.0028140839       -2.6404487500       -0.1808409274
  H         2.8567491372       -2.7604963429        1.4052348106
  O        -1.7042461687        0.9480752332        3.9720676854
  H        -1.5204628272        0.9126690002        3.0256349315
  H        -1.0931498078        0.3364692236        4.3698196388
  O        -3.2439554796        0.2700239034       -3.5288285851
  H        -4.1194754415        0.7244514186       -3.3188584112
  H        -2.5002965421        0.8757883578       -3.1945537743
  O        -4.5116764716        0.6352571546        3.8554787493
  H        -3.7088536030        0.8857236026        4.3530893521
  H         5.0445583279        1.4681267479        3.7250395707
  O        -3.6276305568       -2.7559298339       -4.4644875213
  H        -2.6844375251       -2.8412528031       -4.6648243687
  H        -3.6455009764       -1.7883495897       -4.0980458710
  O        -1.2646081178        1.2758314827        1.2159374274
  H        -1.3762429807        2.1973503721        0.9195987116
  H        -0.7086558705        0.7953026075        0.4658950347
  O         2.1135545713        2.6869628149        1.2409493798
  H         2.0555233400        2.2730440823        0.3632098601
  H         1.4174030120        3.3414986455        1.3134940667
  O        -4.4366654757        3.1914765506       -2.3683190513
  H        -3.6893646500        2.9799994571       -1.7766197876
  H        -4.0187047940        3.5527883265       -3.1960601502
  O         4.2131128791       -0.4868278626       -4.1885560289
  H         3.2812145390       -0.2788425365       -4.3083966130
  H         4.6035607730       -0.1678258562        5.0361592180
  O        -0.3147122460       -3.4808436517        0.1980863208
  H        -0.1956817304       -3.5730875042       -0.7695709394
  H         0.6784898188       -3.4407882752        0.2981255756
  O        -2.5350693870       -3.6101026594       -2.1055821767
  H        -3.0804148652       -3.7232821666       -2.9036399960
  H        -2.3033130230       -4.4497780563       -1.7776640178
  O         4.6885686749       -1.6152405971       -0.6740886718
  H        -4.9091691987       -1.7236473948        0.1605953045
  H         4.9976492112       -2.2857920327       -1.3225286094
  O        -1.3424190923        1.9287803886       -2.4701497910
  H        -0.6631179679        1.4908072838       -1.8728883473
  H        -0.7595813250        2.3637696702       -3.1641654037
  O        -0.3056913721       -1.7963064617       -2.1922721245
  H         0.0086131107       -1.7677980358       -3.1036609070
  H        -1.2646093922       -2.0521306260       -2.2429104004
  O         0.9114685114        4.0623866012       -1.1035741629
  H         1.7536142428        4.3434910404       -1.5569485692
  H         0.4530368003        3.6032588165       -1.8638157221
  O         4.1256368862        2.9809574248        3.4851946351
  H         3.6219679922        3.4048144115        4.2465043535
  H         3.5364425410        3.0126800916        2.7105814051
  O         3.2808920837       -4.8016218914       -1.3752605895
  H         4.2927302861        5.0115410857       -1.2678769465
  H         2.9429271410       -4.4590471989       -0.5180691737
  O         3.7684929863       -2.5131889347        2.7259207206
  H         4.0508696573       -1.6326034285        2.9010356358
  H         3.3174317466       -2.6484821079        3.6392866662
  O         2.9880262287        0.9162032148       -1.1255145445
  H         3.5955525510        0.1375884171       -1.2257543899
  H         3.4799114818        1.5767900555       -1.6785213102
  O         2.9437917739        4.2046217044       -4.3904223267
  H         3.7064089509        4.0371858790       -3.7541863402
  H         2.9125238874       -4.8431847862       -4.4575417740
  O        -1.7587544472        4.2912581602        1.2043907307
  H        -1.1399558677        4.9956920670        0.8175676033
  H        -2.5996176461        4.8056806678        1.2046579389
  X        -3.6668207444       -2.9573877786       -4.2107175452
  X        -3.7843854879       -2.7839539988       -4.7251349182
  X        -3.1211653876       -2.7963065413       -4.5721649732
  X        -2.8100844810       -3.6968258264       -2.5180760066
  X        -3.6357151330       -2.2731043421       -4.2848419062
  X        -4.0702352348        4.9527577251        5.0435552744
  X        -2.7172886914       -3.4941968581       -1.9013613062
  X        -4.2470683449        4.3973088350       -4.6834523296
  X        -2.2724484862       -3.4569057019       -2.1878312961
  X        -3.7673126234        4.3695151422       -4.9396700530
  X        -2.4127176657       -4.0771039264       -1.9445688620
  X        -4.2775044947        4.2388324383        4.7409710949
  X        -4.2067185245        3.3712133884       -2.7862031609
  X         3.0762957044       -2.5565538340       -4.6168089287
  X        -3.2340869666        0.2819397804       -3.8348227744
  X        -4.5997583414        3.4264547229       -2.2408896718
  X        -3.8234576125       -4.0163206694        2.0867695220
  X        -4.5680848701        2.9247648183       -2.4395888037
  X         2.8737796508       -3.2187352719       -4.7212960853
  X        -3.6942873388        0.5204341703       -3.4036325985
  X         2.9317559876        4.7191604298       -4.4153711565
  X        -3.2427931952       -0.0166537417       -3.3892041435
  X         3.0115815904       -2.9042436143        4.9177607020
  X         4.2170720012       -0.8095500538       -4.1855557664
  X        -3.3558212711       -3.5353939042        2.0819296699
  X        -3.5727963052       -3.9755492121        1.6028648690
  X        -4.0608868374       -3.4815476521        1.7314963780
  X        -4.0342828837        3.0890263493       -2.0603556875
  X         3.7974404546       -4.9454039617       -1.2967849942
  X         4.8690714959       -1.9719376307       -1.0033992526
  X        -2.8845499812        0.5724510799       -3.3530757688
  X         3.3382564870        4.1246668111       -4.0577462485
  X        -0.0624232978       -3.1049290483        4.6117556897
  X         2.3964899796       -2.7703844330       -4.9650885510
  X        -0.8036971810       -1.9100695521       -2.2317747247
  X         4.3247150772       -0.3125297721       -3.9581010666
  X        -1.4133219123        4.1453999946        4.2805137982
  X         4.3973093656       -0.3338093066       -4.6288956466
  X         3.0475293400        4.0849079987       -4.6921048219
  X         3.2882965168       -4.5629904554       -1.5591298186
  X         0.0349310831       -3.6935059836        4.3226107402
  X         0.4267090410       -3.1272425707        4.3693609429
  X         3.1070112577        5.0303369904       -1.4519423400
  X        -0.1580446393       -1.7819424247       -2.6732494439
  X         4.3878889196       -1.7077050657       -0.6063606321
  X         2.6681777123        4.0889082062       -4.2566205322
  X         4.0235096586       -2.6837464005        2.7075073809
  X         4.9630075069       -1.6938650593       -0.2393229874
  X         3.7190386593       -0.3717107097       -4.2569819313
  X        -0.1739298685       -2.0404497849       -2.0613961692
  X        -0.8562451038        4.5020164606        4.0959765791
  X        -4.1120036855        0.7779690924        4.1124801768
  X        -0.1136508501       -3.0061461452        3.9542409059
  X         3.1315514762       -4.6411649404       -0.9253979280
  X        -0.7622778006        3.9583651663        4.1565121223
  X         3.5412490007       -2.5885413958        3.1554901585
  X         4.7388924773       -1.3323357094       -0.7808729467
  X        -4.6971171234        0.4287170322        4.0465004733
  X        -1.5206180989        1.6930106621       -2.6250160659
  X        -2.1965148544        4.5474969600        1.1965051917
  X         3.9156700266       -2.0335704442        2.8073043175
  X        -4.4098691196        0.5271873388        3.5508874840
  X        -0.2685210058       -1.4874324308       -2.0469533786
  X         3.8591428825        3.1823019738        3.8600392096
  X        -0.2807756222       -3.5223115349       -0.3066331919
  X        -1.4847129025        2.1501393957       -2.3100806522
  X        -1.0563854280        4.1287080202        3.5599287538
  X        -3.7844394847       -0.6317229484        1.5500210816
  X        -1.0426937281        2.1549679501       -2.8195471066
  X        -4.7686572188        1.0544224222        3.7970957211
  X         3.5327750847       -2.5161372099        2.4556038489
  X        -0.4492511072       -3.1735405090        0.2912235878
  X        -1.1407762457       -2.1316328828        2.2368874546
  X        -2.0037960542        0.8473055801        4.0242234979
  X        -1.7735200141        4.0342886124        1.0152414150
  X         0.8761117357       -0.5938714202       -4.2050584727
  X        -1.4461570545        4.6421763686        1.0051953731
  X         4.3804088948        3.1700029681        3.4447014509
  X        -3.3296100201       -0.7419661825        1.8356971234
  X        -0.4339278689       -3.7698717171        0.3184755355
  X         4.1896486129        2.6578097243        3.5551269424
  X        -3.6827584145       -0.2385296608        2.0812390383
  X         2.6839987899       -2.8162058894        0.1472411690
  X         1.3957338820       -0.4156265623       -4.2410518688
  X         0.6684856173        3.8166686322       -1.5123101229
  X        -1.6196363551        1.2225877402        4.0625202566
  X         0.4907455338        2.4312348386       -4.2012636575
  X        -1.4701149444       -1.6420646167        1.9216744187
  X        -0.9978938382        1.7102554302       -2.1747172415
  X        -0.9607421255       -2.0961268627        1.5916010763
  X         0.1702136468       -3.4665404017        0.2707784046
  X        -1.6726994762        4.2604076755        1.5203570844
  X        -1.3726144981        0.6097972124        4.1771352161
  X        -3.2534931725       -0.2205101160        1.4330589252
  X         1.1350221151        2.6523152571       -4.1946254442
  X         1.0855997321       -0.3750572654       -4.8088341526
  X         2.5902466216       -2.8944607839        0.9256869157
  X         1.3380288429        4.1957592900       -1.3396004437
  X         2.4152417515       -3.3443551514        0.4568476953
  X         0.6508828106        2.6991188161       -4.7953688392
  X         0.9688283150        0.0823787807       -4.2052870171
  X         0.9741275949        3.8513153250       -0.8911583887
  X         3.8181271978        3.0084362126        3.0887226730
  X        -0.8310096357       -1.6925235333        2.1028063487
  X         0.8367381497        2.1137815796       -4.4979795987
  X         2.0610207900       -2.9152307932        0.4678872492
  X        -1.6032741633        0.9132303066        3.4840938193
  X         3.2988290470        0.5150087027       -1.1790279306
  X         0.7532544937        4.3179789597       -1.0528450998
  X         3.2357462795        1.2653203249       -1.4204686452
  X         2.7073509809        0.8461705118       -1.2494232717
  X         0.2411638984        0.0077818452       -1.0055623699
  X        -1.5587877284        1.1500465573        1.2041135139
  X         3.0017078614        1.0116507776       -0.8314743818
  X         1.1903923533       -0.3009109270        3.2169258356
  X        -1.3098203513        1.7578715639        1.0514165417
  X         0.3114415315        0.6796068108       -1.0308827174
  X        -1.1158516651        1.2687342184        1.4978874496
  X         0.1823075606        0.4742606305       -0.5064629000
  X         0.9260160664       -0.5422840110        2.6220803442
  X         1.5544652670       -0.3707764480        2.8188299757
  X        -0.9946242577        1.0508660286        0.8534152705
  X         0.8546235370        0.3896381693       -0.7041226475
  X         2.3900156795        2.8339160059        1.2710105967
  X         1.2214950545        0.2018759815        2.7589531009
  X         1.7359805904        3.0370981112        1.2639681275
  X         2.0700494040        2.4858501890        0.7770786819
  X         2.0427230414        2.4681829550        1.4473707841
