     224
 Particles+Wannier centers. Iteration:1_600
  O         1.4884762478       -0.4179741423        3.8602841044
  H         1.6071681284        0.4512022647        3.2847259585
  H         1.1881953120       -1.0018266159        3.1981588462
  O         0.6313724891        0.1374267212       -3.6285728235
  H         0.7764459243       -0.1487647263       -4.5632319513
  H         0.4206675783        1.1317445165       -3.7184420807
  O        -4.0936879120        3.9667223860       -5.0381024775
  H        -4.9455343079        3.6923473039        4.6091448265
  H        -4.1300477706        4.9106125134       -4.8999672175
  O        -3.3332154563       -0.4327785509        0.9320159447
  H        -2.6847493665        0.3497483792        0.9154114125
  H        -3.8336540124       -0.2683272258        1.7514647080
  O         0.3855083524        2.7967964886       -3.9255628442
  H         1.2996299425        3.2650060985       -4.0242005041
  H        -0.2753348308        3.2972490007       -4.4107725473
  O        -0.8131975206       -3.2079708359        4.1472801977
  H        -0.8997823926       -2.9557986094        3.2444342934
  H        -1.3088453867       -4.0496187465        4.1871363952
  O        -3.3251853719       -3.4941311034        1.3313264394
  H        -4.2331517525       -3.3889902160        1.6635791121
  H        -2.9190238997       -2.6194637433        1.5199145140
  O        -0.1635216745        0.9297932370       -0.6994279484
  H         0.8456221329        0.8353406045       -0.6172669564
  H        -0.3307339919       -0.0108742189       -1.0337517403
  O        -1.4998633746        4.0619672295        4.3245797525
  H        -1.4826651155        4.0243062516        3.3745308157
  H        -2.4238787680        3.9222512632        4.6259772630
  O         1.8943127876       -3.4619251791        4.7583824708
  H         0.9487028643       -3.3045198248        4.6480772362
  H         2.2218438728       -2.8872595197       -4.6597478992
  O        -0.4535752931       -1.6280848157        1.7591573878
  H        -0.9313890761       -0.9600503852        1.1295397001
  H         0.3423200647       -1.9206489675        1.1881161262
  O         3.6935567311       -3.5619075258       -0.0770516206
  H         4.3975278037       -3.4038870353       -0.7182815213
  H         3.9225316647       -3.0701540544        0.7373437942
  O        -1.7508844354        1.1179985606        4.6155881643
  H        -1.4825811146        1.7829268041        3.9628518208
  H        -0.9643003720        0.5374733081        4.5853982410
  O        -3.7128694823       -1.0541869789       -3.8210303249
  H        -4.6690728343       -0.9602172326       -4.0857586729
  H        -3.4056731395       -0.1062302516       -3.6606174382
  O        -4.6129987946        0.1395614956        3.4603499429
  H        -3.7540858398        0.2440772828        3.9592689202
  H         4.9511042023        0.9201871197        3.6189418829
  O        -3.2845902237       -3.7572746617       -4.0835271207
  H        -2.3583336880       -3.8684545417       -4.3156770395
  H        -3.4525935150       -2.7870580747       -4.0567664885
  O        -1.7516070103        1.8796298637        1.6400519889
  H        -1.8856865229        2.9239300020        1.4644024790
  H        -1.0515799228        1.6341331654        0.9883232606
  O         2.1383924193        2.1154071307        1.5886975420
  H         2.4152367055        1.6791472976        0.7520270357
  H         1.4013781509        2.7283230474        1.2465280290
  O         4.8398661859        2.3043422546       -2.6451710054
  H        -4.3727659159        2.0094720489       -2.3990371573
  H        -5.0147432525        2.9165262639       -3.3956566467
  O         3.3271148530       -1.0461975055       -4.0402717429
  H         3.0788244031       -0.6328554902       -3.1699349358
  H         2.6119500564       -0.8216800698       -4.6592977848
  O         1.0469817963       -2.7954616929       -0.0701331769
  H         0.4989584060       -2.5906945250       -0.8806913068
  H         1.9508138098       -3.0402513824       -0.4039967950
  O        -4.2064676361       -4.2130021882       -1.4702301263
  H        -3.9283128785       -4.1359035694       -2.4294525364
  H        -3.4033984753       -3.8893809327       -0.9861752871
  O         5.0026310129       -1.2049548287       -1.2134749486
  H        -4.5636689075       -0.8972532940       -0.4721686221
  H        -4.5615050185       -1.1485585851       -1.9842196990
  O        -2.3279528411        1.4219022977       -2.9732805312
  H        -1.5797160896        1.1446822206       -2.3453846377
  H        -1.9006650658        1.7740104826       -3.8242755742
  O        -0.7153342306       -1.5764545673       -2.0681433872
  H        -0.4314354547       -0.9535053069       -2.7599318683
  H        -1.4930961513       -2.0655419535       -2.3422338760
  O         0.7538163350        3.8304462800       -0.2406587874
  H         1.7038753146        3.7361784363       -0.5222988369
  H         0.1935557634        3.3624107226       -0.8630522726
  O         3.7613557765        2.3723178575        4.0247496270
  H         3.3115685198        2.7147994242        4.8020610890
  H         3.0471560982        2.4279987394        3.3112195411
  O         3.2251693683        4.2307548815       -1.3157340286
  H         4.1100509090        3.9829109841       -1.4613532617
  H         3.2705512969        5.0405643971       -0.8371888096
  O         3.9142739600       -2.5090121193        2.5459084138
  H         4.1288889835       -1.6034798462        2.7696276966
  H         3.1736985954       -2.8036690299        3.1559145246
  O         2.6659711299        0.7652166288       -1.0061253507
  H         3.3272230482        0.0635936625       -0.8174643273
  H         2.9970215716        1.3626360484       -1.7336195405
  O         2.6199093676        4.1027260525       -4.0333636569
  H         2.9051557958        4.2743574538       -3.0714979126
  H         2.2939157331        4.9863584269       -4.3693549950
  O        -1.5180609821        4.5628055832        1.2698881092
  H        -0.8685812744        4.8019690081        0.5711261395
  H        -2.2424945922       -4.9096240074        1.2784135054
  X        -3.3250935515       -3.8602647029       -3.7722444989
  X        -3.3564602496       -3.2683138317       -4.0827612802
  X        -3.4557809580       -3.8966559023       -4.3116884381
  X        -2.7874051425       -3.8048732993       -4.2010980735
  X        -4.0646507333       -4.1664476803       -1.9571318795
  X        -4.1305491344        4.4595083835       -4.9824619384
  X        -3.7294653323       -1.1818135314       -3.5313645429
  X        -4.4495322393       -4.0093551976       -1.4089867395
  X        -3.7753267179       -4.0384512550       -1.2278354352
  X        -4.2278015247       -4.5117276307       -1.4104109126
  X        -3.5543203845       -1.2096439006       -4.0437437949
  X        -4.1231378820        3.8456352175       -4.7503562810
  X        -4.2025905120       -0.9974214477       -3.9593529118
  X        -3.8213491340        3.9008119630        4.8837017946
  X        -3.5635952289       -0.5775298043       -3.7572106155
  X        -4.5252079739        3.8429771222        4.8177292324
  X        -1.0736552925       -3.6466352231        4.1662906956
  X        -1.9677570108        3.9795871239        4.4586309103
  X        -4.8016171244       -1.1585070831       -1.6172001939
  X        -3.8024138979       -3.4365904415        1.5093958364
  X        -3.3423910828       -3.5075470991        1.0255704223
  X         4.9642541163        2.6205721410       -3.0404347720
  X        -0.9613101394       -3.0061128309        4.3183926268
  X        -3.1698131317       -3.7360232941        1.4886149500
  X         3.2876287484       -1.3541599877       -3.9996970771
  X        -1.1368988563       -1.8263090581       -2.2269805969
  X         2.0489420408       -3.1489209628       -4.9750183954
  X        -0.4920664571       -3.2735891999        4.2060037319
  X         2.4605647689        4.5556148497       -4.1940056715
  X        -3.1174396389       -3.0413495118        1.4437721130
  X        -1.4503822487        4.3716774446        4.3803278080
  X         4.9584024176       -1.4976644771       -1.1701812407
  X        -2.4852218347        1.1436250867       -3.0667979059
  X         4.0518729397       -3.4672577529       -0.3992696618
  X        -4.7922328414        2.1472705659       -2.5164805530
  X         1.4130103559       -3.3662880161        4.7198727392
  X         1.9308561591       -3.7681221570        4.8780026183
  X         4.6754607027        2.0679849839       -2.7493257310
  X         2.8659161620        4.0039617121       -4.2096184153
  X        -1.3014923598        3.8456491725        4.4540038964
  X         3.6130852137       -0.9346558048       -4.1350560740
  X        -2.4949968559        1.6457349807       -2.8291182484
  X        -4.8080556407       -1.0397749738       -0.8366631879
  X        -0.8648593967       -3.0868168033        3.6697921891
  X         2.7613273663        4.1949632777       -3.5625066489
  X        -2.0982880028        1.6085845476       -3.3826036963
  X         2.0429726612       -3.3774988273        4.4886655582
  X         4.1662460664       -2.6734760805        2.6144494195
  X        -0.4843379125       -1.7901695919       -2.0198348885
  X         3.1883186737       -0.8227249936       -3.5896462197
  X         3.6955015480        4.1015344425       -1.3699387455
  X         4.7381251680        2.4873207958       -2.4140688852
  X        -0.5951003941       -1.2799493197       -2.4328780519
  X         3.4102135619       -3.4305751119       -0.1887939042
  X         4.7488986642       -1.0024278951       -1.2415020375
  X         2.3358156705        3.8961202744       -4.0209006098
  X        -1.5077091232        4.0248154608        3.8232764975
  X        -4.1750958755        0.2064762698        3.7255391131
  X         3.6845397746       -3.8849360540       -0.0286042359
  X         2.9538438268       -0.9123273687       -4.3549044153
  X        -1.9319087503        1.2808041758       -2.6604880136
  X         3.5307521134       -2.6453979346        2.8590266333
  X         3.1202634438        4.2958499933       -1.6286428913
  X        -1.7479692885        1.2624898251        4.9113815426
  X        -1.8890194029        4.8842578570        1.2518399312
  X         3.8257477537       -3.3165517104        0.3372805860
  X        -0.7929192406       -1.3912594299       -1.8194271969
  X         3.2515440282        4.6488219308       -1.0762578810
  X         3.8138312368       -2.5190332816        2.2356611053
  X        -4.7636962179       -0.1056686431        3.5741393957
  X         0.0469149179        3.0626360207       -4.1894787844
  X        -4.5292893733        0.1300490438        3.1401471578
  X        -2.0054017701        0.9606680261        4.5095114401
  X         4.0083932580       -2.0265030321        2.6693819162
  X         3.9856363433        2.5937751596        3.9672651297
  X        -3.1666636651       -0.6970483393        0.9819932491
  X        -1.3789860999        4.6012494486        1.5410362539
  X        -1.3353627621        0.8085490398        4.5967382048
  X         0.8157384535        3.0188570297       -3.9992786856
  X        -4.8728995993        0.5500378525        3.5466470892
  X         3.0527720457        4.0105219433       -1.1425508964
  X        -1.2000235053        4.6971399619        0.8997007730
  X         0.3186809919        2.8360613216       -3.6383626796
  X        -3.5892839988       -0.3420854316        1.3529450408
  X         0.3623320130       -0.0382250352       -3.4973366405
  X        -1.6095526318        1.4647282214        4.2744975406
  X         0.7752193149       -2.6901576159       -0.4961010622
  X        -3.5380331401       -0.4189974464        0.6753301219
  X         3.5197006922        2.5329597410        4.4346651094
  X         0.3918399438        2.4686533299       -4.0261078765
  X        -1.6353798564        4.2425336206        1.2163729174
  X         3.8462188294        2.0638087865        4.0551995723
  X         0.9021714676        0.1138869438       -3.5024752969
  X         1.5027652450       -2.9001456844       -0.2505765862
  X         0.6916639473       -0.0053878341       -4.1171842414
  X        -3.0057895642       -0.0393633637        0.9211301788
  X         0.9341783487       -3.0460207993        0.0379334424
  X         0.5192428889        0.6170057555       -3.6793020222
  X        -0.6434149114       -1.8800771757        1.8011764987
  X         1.0452173655       -2.5209193837        0.1286722079
  X         3.3936544399        2.4089762986        3.6700715429
  X         1.2481448537       -0.3661062327        4.0785099807
  X        -0.3455992811       -1.4651869343        2.0080524867
  X         0.6691170503        4.1301599600       -0.2445431004
  X        -0.0597744039       -1.7613025286        1.4813364853
  X        -1.8223288183        2.3756518192        1.5442794956
  X         2.8478964860        1.0582912612       -1.3859641112
  X         1.7721752730       -0.5047859301        3.9659298352
  X         0.4705264067        3.5764298928       -0.5838453901
  X         1.2241768600        3.7753323217       -0.4004737884
  X         1.3329411603       -0.7333110124        3.5107430643
  X        -2.0134232591        1.7061499364        1.5408721088
  X        -0.6964166034       -1.2813107763        1.4291508894
  X         3.0122666304        0.4072268855       -0.9271551307
  X        -1.6382371584        1.8502339265        1.9345843871
  X        -0.2565826730        0.4490058184       -0.8637136086
  X         2.3872360676        0.6371341473       -1.0886560766
  X         0.7351500349        3.6644759903        0.0408026221
  X        -0.2353096156        1.1248797680       -0.9342592616
  X         1.5454927856        0.0239044137        3.5730688045
  X        -1.3782023265        1.7648920252        1.3068843014
  X        -0.2950392793        0.9592741372       -0.3952505360
  X         2.6557588847        0.9444147180       -0.7416812649
  X         0.3419148153        0.8908610574       -0.6553489141
  X         2.3733333585        2.2886330741        1.7041734705
  X         1.7627420604        2.4228019242        1.4200255041
  X         2.2817409311        1.8933688907        1.1569637233
  X         2.0088109063        1.8903650598        1.7786082771
