     224
 Particles+Wannier centers. Iteration:1_1900
  O         0.9478299590       -0.1229259412        2.5289835622
  H         1.7654783459        0.1796506103        2.1511768281
  H         0.5607897501       -0.6471036545        1.7571605935
  O         0.9656591963        0.5381360419       -4.6201842606
  H         0.8038967236        0.2956188353        4.5633941705
  H         0.9621268147        1.5660276986       -4.5906393606
  O        -4.1680076952       -4.8577346966       -4.9045424360
  H        -4.5582239638        4.8651440585        4.3855081400
  H        -4.4523425192       -3.9356615097       -4.8216624386
  O        -3.8782175385       -0.5783559984        1.4108237309
  H        -3.4681192976        0.1379612873        0.8495429057
  H        -4.5415727574       -0.1486368620        1.9309564199
  O         0.4060211154        3.3490148478       -4.0024377691
  H         1.3202912559        3.6954146205       -3.9442524187
  H        -0.0858376793        3.9136794413       -4.6538486389
  O        -0.2595773065       -2.9969037534        4.6391588182
  H        -0.5333533671       -2.6105926924        3.7941596567
  H        -0.6114205372       -3.8921080765        4.6024961879
  O        -4.0076233301       -4.5210538795        0.7026306625
  H        -4.6515158070       -4.1640175792        1.3708690845
  H        -3.9816759989       -3.8313475989        0.0268217806
  O         0.5133487201        0.5556470713       -0.7960919385
  H         1.2671381319        1.1609965737       -0.9356817142
  H         0.7367114969       -0.2157778425       -1.3356361708
  O        -1.4133234332        4.5368199537        4.4799566690
  H        -1.2307271081        4.3407684748        3.5300430786
  H        -2.3646267258        4.6271238623        4.6474286828
  O         2.5987190235       -2.9932983172        4.6713029736
  H         1.6182709185       -2.8673857741        4.3856349141
  H         2.9246398989       -2.1347372309       -4.9066935314
  O        -1.4000355279       -1.9998963291        2.0225282019
  H        -2.1905876671       -1.5002694933        2.0263871144
  H        -1.4787962903       -2.5203104057        1.1652824794
  O         2.3934246604       -2.9668235178        0.4178129354
  H         3.2075753727       -2.5015396779        0.0381060961
  H         2.4758614870       -2.6819765675        1.3189490193
  O        -1.8894819873        1.2529622502        3.6877272837
  H        -1.5969608322        1.1481345049        2.7500977539
  H        -1.0980790491        1.6541332906        4.1341049607
  O        -3.3319801297        0.5556097799       -3.7091564565
  H        -3.9835653251        1.1992610595       -3.9209695746
  H        -2.5765716203        1.1006584419       -3.2868940127
  O        -4.6728248733        0.6767872687        3.8984647825
  H        -3.6929643092        0.8465646769        3.7983439830
  H         4.9760074164        1.5431672123        3.6019167155
  O        -3.3541397186       -2.1549803674       -4.2286060600
  H        -2.5592612103       -2.3044471193       -4.6952113112
  H        -3.3832338051       -1.1725991032       -4.0408030317
  O        -1.8966978020        1.2935271735        0.6531417460
  H        -1.6816339170        2.2195039473        0.5928268842
  H        -1.1703169968        0.7838871349        0.2290179035
  O         3.0183661457        1.9657613416        1.4126113868
  H         3.4981172199        1.6825741310        0.5779771332
  H         2.1237844520        2.3012122395        1.1059278411
  O        -4.2182032649        3.7009248062       -2.4157911535
  H        -3.2957667648        3.3949986835       -2.3479081869
  H        -4.3975729175        3.8490529123       -3.3643652302
  O         3.8519862169       -0.8523874284       -4.2109714791
  H         3.0440187002       -0.3130928980       -4.1198837814
  H         4.3340527535       -0.4199156866       -4.9226268699
  O        -0.4714721363       -3.5651364903       -0.0697798562
  H        -0.6976958855       -3.3452243259       -0.9929447965
  H         0.2305918092       -2.9505006577        0.0586872608
  O        -3.3800233826       -3.4475934540       -1.8606448246
  H        -3.1098416287       -2.8785067276       -2.6252020414
  H        -3.3998017917       -4.3367150491       -2.1472399993
  O         4.7698448981       -1.6383937878       -0.4856792569
  H        -4.7352794671       -1.3644830941        0.2770956961
  H        -4.8250216062       -2.1252514804       -1.1669874029
  O        -1.3668054349        2.4522254306       -1.9369763195
  H        -0.9004973404        1.7335284892       -1.5094785984
  H        -0.7092787562        2.7171948582       -2.6505186949
  O        -0.4866141880       -1.7606750142       -2.8278398519
  H        -0.0569840179       -2.0786848721       -3.6575052242
  H        -0.7804455158       -0.9077111792       -3.2587876390
  O         1.5804278971        3.2127846042       -0.2386288507
  H         2.5053689555        3.5234671925       -0.2739595120
  H         0.9739465326        3.9636591054       -0.3748159499
  O         4.4234949263        3.4740417750        3.5877200450
  H         3.7955527726        3.4508835442        4.3427442664
  H         3.8927801466        3.4349667248        2.7682125677
  O         3.8380853294        4.5773474396       -0.6952011671
  H         4.7311549511        4.7916769155       -0.3310030320
  H         3.3564292148       -4.7433755792       -0.5823486361
  O         4.6004539388       -3.0756165742        2.7031772653
  H        -5.0174218038       -2.3250710941        2.9117963371
  H         3.9367750563       -3.1378527234        3.4316296371
  O         3.8806151519        1.5042698940       -1.1889248629
  H         4.4397214577        0.8333144024       -1.6602560121
  H         4.1939720808        2.2671913774       -1.7619552926
  O         3.0525356684        4.6711347315       -3.8970696794
  H         3.6104407125        4.8052479134       -3.1150307585
  H         2.9595890613       -4.5222687909       -4.3272490693
  O        -1.5060592049        4.2004143029        1.6321096602
  H        -0.7973088717        4.5490610408        1.0591768389
  H        -2.3079888778        4.7791839646        1.4648336702
  X        -4.3276148219       -4.3765231714       -4.8761171423
  X        -3.5986944832       -2.2463620737       -4.4040451146
  X        -3.3855388800       -3.9197215473       -2.0313984222
  X        -4.2800156794       -5.0251460466       -4.6575954879
  X        -3.8457313143       -4.8573301791       -4.9552388778
  X        -3.3045384880       -2.2968718347       -3.9337357655
  X        -3.2355060803       -3.1751045775       -2.2461616401
  X        -2.9235418793       -2.2213695004       -4.4854639478
  X        -3.6822084444       -3.3674659704       -1.7873784906
  X        -4.3769702986       -5.0326173604        4.7720435000
  X        -3.3598225033       -1.6628751990       -4.1498859400
  X        -3.1731708795       -3.4327740626       -1.6309441035
  X        -4.2975468826        3.7594467760       -2.9195690864
  X        -4.2185044289        3.9806789005       -2.2993736518
  X        -3.7325482483        3.5399042692       -2.4032103602
  X         3.3434115832        4.7511879847       -3.4854578679
  X        -1.9058152858        4.5642540170        4.5469664850
  X        -4.4055910815        3.4706126929       -2.3132391428
  X        -3.4453953487        0.3746039189       -3.4910791397
  X         3.0157024433       -4.9660012688       -4.1000965177
  X        -3.9959854046       -4.1503373215        0.3625371245
  X        -0.4391233367       -3.4577884556        4.6149647520
  X         3.2113416189        4.4882872550       -4.0986212643
  X         4.7963662838       -3.3261067326        2.6961841108
  X        -3.6785136357        0.9099122642       -3.8169445709
  X         3.7276399462       -1.1474729080       -4.3382169447
  X        -1.2943598692        4.8374714624        4.5204589338
  X        -3.2346528052        0.4241224692       -3.9677605308
  X        -0.2547665599       -1.9325636331       -3.2473940674
  X         2.6092381965       -3.2521558380        4.8837760937
  X        -4.3329675308       -4.3334908364        1.0433262651
  X        -3.7159812561       -4.5646651242        0.8341409957
  X        -1.2744206043        4.3064985656        4.6674957251
  X        -2.9451216585        0.8390327046       -3.4989974143
  X        -5.0476175348       -1.8974597397       -0.8294147695
  X        -4.1610081590       -4.7623208994        0.5572075172
  X        -0.3894341862       -2.8383967087        4.8808880320
  X         2.7540736204        4.5768632935       -3.8040919187
  X         4.2754428146       -3.1076965236        3.0774029167
  X         0.0662546844       -3.0134560524        4.6208020595
  X         4.8643219832       -2.6609337568        2.8278566837
  X         4.0073374952       -0.8420677792       -3.9556448430
  X         2.7939398396       -3.0089104586        4.3983431866
  X        -0.7332411651       -1.9367697417       -2.7721982208
  X         2.7283541830       -2.5720926661        4.9221160245
  X         4.0939222129       -0.6222873848       -4.5836412617
  X        -0.6512889497       -1.3082139526       -3.0422139331
  X         4.2849876540        4.6885833325       -0.5045444726
  X        -1.3419083737        4.4303624681        3.9966277310
  X         4.4507825485       -3.0063373749        2.4529608379
  X        -0.4101197965       -2.8009307542        4.2020478462
  X         4.5945535090        3.7492737918        3.6150411312
  X         2.1121664522       -2.9143602039        4.5283794829
  X         4.5205501453       -1.8389521671       -0.3770822949
  X        -0.2679200679       -1.6841887468       -2.6133820598
  X         3.4344634528       -0.5577647093       -4.1679306558
  X        -5.0180580674       -1.5337458558       -0.1138857485
  X         3.8619447728        4.5477055488       -1.0004865842
  X        -4.7480766640        0.6264235346        4.2047310720
  X        -0.5850626458       -3.4558983245       -0.5570395957
  X         3.5848950825        5.0040271714       -0.6277221316
  X         0.1763403262        3.6443094308       -4.3325957156
  X         4.0777657934        3.4612387297        3.9709324074
  X         4.7014171154       -1.3804518125       -0.6118109910
  X        -1.6276770150        2.3280743033       -2.0933911092
  X         4.5698973485        3.1891463190        3.5968006350
  X        -4.7484942417        0.4557550079        3.6810214423
  X        -1.3892896624       -2.1965272996        2.2745264292
  X        -4.1810016387        0.7724469079        3.8493149631
  X         0.8712144086        3.5370867107       -3.9741635901
  X        -0.7190542612       -3.4555604014        0.1109563008
  X         0.2558780210        3.3577227930       -3.7138998079
  X        -1.9047181953        4.5036568083        1.5401592494
  X        -4.0428815930       -0.7882700151        1.1965719826
  X         3.6813844192        4.3409835856       -0.5238565567
  X        -0.3673708178       -3.8615543517       -0.0471738531
  X        -1.0311149139        2.5808660014       -2.2962836328
  X        -1.4546611980       -2.2655086077        1.5900528667
  X        -1.4005163660        2.6808587436       -1.7450404175
  X        -4.8902948851        1.1168468957        3.7473949258
  X        -1.8228642394       -1.7374915942        2.0264682605
  X         0.4402297772        3.0539589031       -4.1428396766
  X        -3.6544827302       -0.6930907970        1.6002957387
  X         4.1351860858        3.4712198118        3.1727661655
  X        -2.1387451283        1.4464455378        3.6974117306
  X        -0.0970165368       -3.2401762359       -0.0018582879
  X        -1.4128738816        4.2422354465        1.9491914414
  X         2.7942928915       -2.7310105173        0.2244554413
  X        -4.2271563421       -0.3436365205        1.6773164086
  X         4.0339000932        1.9071106899       -1.4770083359
  X        -1.1365166292        4.3935075260        1.3288236180
  X        -3.6849823248       -0.2078084789        1.1295717799
  X        -1.9167572871        0.9709966654        3.7950777321
  X        -1.1668499081       -1.8024171990        1.9724657991
  X        -1.1266662272        2.0742894308       -1.7148268076
  X         4.1717344401        1.1448485033       -1.4255434316
  X         2.1204636325       -2.8399060203        0.3009869718
  X         2.4491359515       -3.2751644064        0.4081148204
  X        -1.4711084971        1.4698165681        3.9185451576
  X        -1.5711646097        3.9112667273        1.5258398507
  X         0.7220123155        0.4453611299       -4.4532939755
  X         3.5841466633        1.4459936840       -1.2597768900
  X         1.2614863776        0.4449859979       -4.5541211496
  X         2.4362719471       -2.8158999550        0.9067827051
  X         0.9650527045        1.0595710655       -4.6271587046
  X        -1.7290058685        1.2087474304        3.2043045371
  X         0.8784501687        0.4276902390        4.9925861494
  X         3.9781740593        1.5438423172       -0.8801721052
  X        -2.1816995204        1.2225477269        0.5178568497
  X        -1.7750524020        1.7766478295        0.6008235281
  X        -1.8641760872        1.2301662983        0.9615953522
  X         1.2706023581        3.6267081338       -0.3080547739
  X         2.0365068128        3.3888652763       -0.2628716242
  X         0.6355971921        0.1489018178       -1.0812432591
  X        -1.5187520859        1.0418985645        0.4209812005
  X         1.5322780866        3.0128950089       -0.4697533260
  X         0.2415086260        0.6942625809       -0.9217819167
  X         0.5083784001        0.4705854892       -0.4996002923
  X         1.0051758111       -0.3141228623        2.7700330789
  X         3.1704318693        2.2170668408        1.5436993464
  X         1.5381313055        3.1042235949        0.0694229813
  X         3.2511714042        1.8314446894        0.9831347751
  X         0.7544882845       -0.3981147050        2.1262599581
  X         0.9054621877        0.8621337290       -0.8741914577
  X         0.7750517095        0.1232442258        2.5614898650
  X         2.9729783947        1.6997208155        1.5845595161
  X         1.3872830895        0.0283230024        2.3280589568
  X         2.5655016418        2.1221411410        1.2525436974
