     224
 Particles+Wannier centers. Iteration:1_2950
  O         1.2840981097        0.1289462084        2.7599123109
  H         2.1635707473        0.4596370979        2.4218441998
  H         0.7582573837        0.5989254645        2.0894990396
  O         1.1555470093        0.2408272358       -4.6035375063
  H         1.0764129165        0.2699583521        4.4483419396
  H         0.9359043057        1.2275608168       -4.3544311252
  O        -3.5972957362       -4.4309818108        4.8945186688
  H        -4.2079717990       -4.2571648743        4.1523675408
  H        -3.3917786191       -3.5987831378       -4.7345524174
  O        -4.3742696013       -0.6237426784        2.5224194379
  H        -3.4285393867       -0.8852480848        2.6110411009
  H        -4.5181438361        0.1861928612        3.2265520990
  O         0.4391387188        2.9828351901       -4.1453153577
  H         1.3138090850        3.3774262283       -4.1422956796
  H         0.0837941625        3.2961344554       -5.0074675039
  O         0.1772928430       -2.8937348126        3.9900513625
  H        -0.2950390034       -2.5005912271        3.3034614227
  H        -0.0672640154       -3.8619240352        4.0278370950
  O        -3.2827632185       -3.6221911076        1.3734687535
  H        -4.1555027654       -3.6614173181        1.8086469854
  H        -3.5204206914       -3.6008491171        0.4201705360
  O        -0.2370934184       -0.1156963373       -0.3195230562
  H        -0.5066308755       -0.6529605458       -1.0926308211
  H         0.1664780828       -0.7663182746        0.2669310983
  O        -0.9465261192        4.5145150277        4.0370849851
  H        -0.9302502401        4.3260450476        3.0448544046
  H        -1.8218931639        4.8968361737        4.1762000576
  O         2.9409499790       -2.5125932004       -4.9499606317
  H         2.0733007909       -2.3443943832        4.8078674020
  H         3.2146699506       -1.7965994762       -4.3359800241
  O        -1.7845244265       -1.5072657629        2.1044870982
  H        -2.2414127038       -2.3492924294        1.8303849786
  H        -1.5041751505       -0.9912174140        1.3144714702
  O         2.2010248759       -1.9799133833        0.6144441135
  H         2.8543660475       -1.4183633477        0.1548279462
  H         2.3674743725       -1.8864328889        1.5292142673
  O        -1.8594615226        1.0730491966        3.9668469986
  H        -1.5265483621        0.1854142192        4.0484065868
  H        -1.6246638337        1.3765357474        3.0681653040
  O        -3.3181749701        0.9196911359       -3.0454476507
  H        -3.2155926933        1.9101785003       -2.9199848531
  H        -3.0492359504        0.4766261820       -2.1886311713
  O        -4.6661025106        1.3797958944        4.3153608798
  H        -3.6878512391        1.4594355035        4.3585482332
  H         4.9750396874        2.2073223558        4.1246722257
  O        -3.1893806727       -1.9798540587       -3.5139059288
  H        -2.1599605610       -1.8569137644       -3.3983166007
  H        -3.4858791137       -1.0644165640       -3.6665927829
  O        -1.7348846210        1.7243094546        1.4280622895
  H        -1.8792733024        2.7336490567        1.3095176600
  H        -1.2082795599        1.4666414033        0.6463473146
  O         3.4481487529        1.6029942356        1.6645724446
  H         4.3422238315        1.2630981802        1.9550618953
  H         3.6282259600        1.7564632319        0.6539408356
  O        -3.8529727852        4.0734973202       -2.7749594646
  H        -2.9577718307        4.1203934106       -2.3664127993
  H        -3.7206939092        4.2485975547       -3.7013513755
  O         3.8486289141       -0.2187116439       -3.5098126966
  H         3.0241900496        0.0903899864       -3.9875838083
  H         4.5330408221        0.3666395471       -3.8729422858
  O         0.1819820258       -4.1983703350       -0.2955500530
  H         0.0892857599       -4.6746212228       -1.1224560771
  H         1.1465278504       -4.1506113324       -0.1852628211
  O        -4.2689902471       -3.4474949624       -1.4535695744
  H        -3.9831717183       -2.9285102538       -2.2624160646
  H        -4.1278480114       -4.3683643720       -1.7282952447
  O         4.7987811003       -0.9781443523       -0.2901109385
  H        -4.9607827615       -0.7742536101        0.6060221575
  H        -4.7431416451       -1.7841046009       -0.4853374201
  O        -1.2721010675        3.6722252272       -2.0395113622
  H        -0.7548660467        3.2158914202       -1.2952196278
  H        -0.6714619556        3.7094414013       -2.7853408021
  O        -0.4515217848       -1.6909401956       -3.6261441396
  H        -0.1323064531       -2.2494088496       -4.3791067284
  H         0.0222597611       -0.8235401154       -3.7595200152
  O         1.5476677601        3.1043492691       -0.8753404105
  H         2.2415364400        2.5118749472       -1.2135961551
  H         2.0383992602        3.9962688716       -0.7218949203
  O         3.9485167742        3.6761508238        3.8127387731
  H         3.5353961825        4.2873133296        4.4585629548
  H         3.3563117296        3.4145803838        3.0801046297
  O         3.3306735021       -4.4174728279       -0.4848346327
  H         3.0572223916       -3.6309007406       -0.0507483799
  H         4.0419175823       -4.0448755040       -1.1260263168
  O         4.5967623831       -3.1032995418        2.8961575070
  H         4.8428497137       -2.1804390972        2.9127388261
  H         4.0661404106       -3.1142423500        3.6938817722
  O         3.9160673017        1.6441560312       -1.0565742854
  H         4.1446932572        0.8235451021       -1.5936825477
  H         4.7072292612        2.2123382723       -1.4041728044
  O         2.1412293747       -4.9972455255       -3.9771624689
  H         2.5827278231        4.9436531605       -3.1436930329
  H         2.3376993240       -4.0373092787       -4.2390409180
  O        -1.6312796172        4.3939207633        1.4099542815
  H        -0.9253671878        4.7058200451        0.7817701759
  H        -2.3432251248       -4.9902927337        1.3880728512
  X        -3.5080541990       -3.9892029556       -4.9776895513
  X        -3.2313813631       -2.1506864922       -3.7817356948
  X        -3.7347782348       -4.6273969575       -5.0015035392
  X        -3.3211697247       -4.5245235974        4.7614372394
  X        -4.1244266981       -3.1960290213       -1.8523931027
  X        -3.9181628502       -4.3224615097        4.5142836245
  X        -3.3329816114       -2.0974665512       -3.2236021892
  X        -3.7706765931        4.1629417079       -3.2611952086
  X        -2.6984146895       -1.9165051764       -3.4460825802
  X        -4.1865913307       -3.9222778313       -1.5889370463
  X        -3.3446481928       -1.5014408424       -3.5931555597
  X        -4.5896130744       -3.4249900032       -1.4276989853
  X        -4.0271803958        4.3122866716       -2.6507860800
  X        -3.3956801019        4.1094057706       -2.5804363707
  X        -4.0880678554       -3.3744862727       -1.1845123674
  X        -3.9389351609        3.7720265016       -2.7412191536
  X         3.1473060001       -2.5343035629        4.9018890626
  X         4.8800141185       -3.2846621361        2.9329526431
  X         2.2882564321        4.9122968771       -4.1905383339
  X        -0.8003105332       -1.6608095860       -3.6495905052
  X        -3.7249426048       -3.6430080617        1.5884257932
  X        -3.4074120613       -3.6049764667        0.8843101516
  X        -3.6228242212        0.8628575668       -3.0667886600
  X         2.2412003311       -4.5202072051       -4.0906348108
  X         4.3268172144       -3.1284301057        3.3106875808
  X         2.8890265566       -2.7886388016       -4.7720096749
  X         3.0608417287       -2.1426623268       -4.6419028207
  X        -3.1241990489       -3.9209681116        1.4156601509
  X        -3.2582116097        1.4262732930       -2.9637592664
  X        -1.4098154295        4.6997019214        4.1021284375
  X        -3.1203399088       -3.3408265438        1.4567797805
  X         2.3839931168        5.0334755513       -3.5262896884
  X        -3.1263460538        0.8230985666       -3.2570356662
  X         4.7213607205       -2.6298542274        2.9081086172
  X        -0.2842727102       -1.9717190553       -4.0090401719
  X        -1.3095560380        3.9644488376       -1.9464797162
  X        -0.3465301404       -1.8050420662       -3.3663971769
  X         3.8923275758       -0.5256933428       -3.6139505189
  X        -3.1692257233        0.7044779371       -2.5805615952
  X         1.8450748089       -5.0335555304       -3.9283092219
  X         3.6750111366       -4.2295784602       -0.8212037336
  X         4.4235320381       -3.1502957426        2.6545452916
  X         2.4871018383       -2.3985902675        4.9769297504
  X         0.0470229253       -3.3829077186        3.9920105935
  X         4.2053936450        0.0829623907       -3.7078556286
  X         3.7078233246        3.9888794414        4.1391570270
  X        -0.7447876021        4.7715042790        4.0736484266
  X        -4.1758221544        1.4558384892        4.3385079284
  X        -0.9592634319        3.6835210291       -2.4189686338
  X        -0.2295161216       -1.2518924209       -3.6991544999
  X        -1.5392736353        3.5163395994       -2.1125417444
  X        -0.8962419309        4.2470147147        4.2106937262
  X        -5.0085161836       -1.4032589940       -0.3875616149
  X         3.8195840020       -0.1469945064       -3.2011399550
  X         0.0760679803       -2.7651362507        4.2755301351
  X         3.4763442188       -4.5853967311       -0.2874499067
  X        -4.8721174625        1.8080408959        4.2067320409
  X        -4.7653890321        1.2841084598        4.5909804606
  X         0.4848098040       -2.8720291630        3.9298313948
  X        -4.4358555462       -0.2417353486        2.8461164957
  X         4.1693116450        3.8288170811        3.6880447496
  X         3.1856226893       -4.0009205409       -0.2610569414
  X         3.4330217985       -0.0513894969       -3.7543273813
  X         4.0279868567        3.3982380105        3.9638759162
  X        -1.9814947644        4.7401230738        1.3857358667
  X        -0.9436570956        4.4150311443        3.5438495275
  X        -1.9975036994       -1.9252480617        1.9428885929
  X        -4.7076210254        1.1518819870        4.0409963508
  X         3.0708283697       -4.5391652937       -0.6462569092
  X         0.1439046791       -4.4487560560       -0.7402958149
  X        -0.0815539613       -2.6971151246        3.6198602989
  X         4.8872483612       -0.7561996476       -0.4827647418
  X         0.2641558079        3.1198046273       -3.9081835706
  X        -3.8922186781       -0.7471972404        2.5768997070
  X        -4.5566556339       -0.8829881671        2.6278105272
  X        -1.0070677679        3.4297414616       -1.6593320438
  X         4.4926301491       -1.0745316203       -0.2570894210
  X        -2.1907703373        1.0638864228        3.9869156362
  X         0.9011472187        3.1827447582       -4.1474746538
  X        -1.5218448213       -1.5819241929        2.2659430149
  X         0.0806148494       -3.9174340589       -0.3341870196
  X        -1.7477572733        4.0863853620        1.3118172383
  X         0.2691312491        3.1386612605       -4.5919688698
  X        -2.0179514475       -1.3353588288        2.2467997216
  X         0.0570627101       -4.4005608972       -0.0634855150
  X        -4.4243561714       -0.5229951072        2.2147367436
  X        -1.2804584018        4.5524131159        1.0833100433
  X         4.9757253914       -0.8716860490        0.1769791049
  X         3.6124971624        3.5617855456        3.4452781034
  X        -1.6824187229        0.5903543906        3.9956432211
  X         4.3220764256        1.9441599236       -1.2287849169
  X        -1.7060827738        1.2375922348        4.1674200956
  X         0.4823250771        2.6435833883       -4.1619700189
  X         0.6918397112       -4.1854055203       -0.2412727940
  X        -1.4947191586        4.4062231217        1.7117713833
  X         0.9187061653        0.0401437372       -4.4672561018
  X        -1.6456769550       -1.2558209311        1.6744515771
  X         4.0256707478        1.2229160578       -1.3141293340
  X         1.4787580999        0.1917869531       -4.5330252463
  X        -1.7319253987        1.2116451201        3.5125281754
  X         3.6428247227        1.7758634587       -1.1755174852
  X         1.0500356334        0.7268906189       -4.4836794127
  X         2.2798950923       -2.2869893847        0.5360769118
  X         1.1080812142        0.2549478495        4.9913620866
  X         1.8073119697        3.5629847123       -0.8089041364
  X         2.5380372666       -1.6791605109        0.3903907185
  X         3.9503861089        1.6025832105       -0.7236709135
  X         2.3044923301       -1.9196979315        1.1063160453
  X        -0.3773074100       -0.4049101613       -0.7250271740
  X        -1.8002814248        2.2164817534        1.3615480632
  X         1.3205626437        3.1521880786       -1.0893016777
  X         1.9095882547       -1.8714991007        0.5618302365
  X        -1.9989739772        1.5892908806        1.3925911699
  X         1.9091481636        2.8071940441       -1.0615746207
  X        -1.5614439686        1.6736605183        1.7096867896
  X        -0.5065969326       -0.0193134922       -0.1766421413
  X        -0.0345833116       -0.4661465843       -0.0111176147
  X         3.9202652568        1.4246659990        1.8130679188
  X         1.4834527409        3.0078161218       -0.6006743059
  X        -1.4483314364        1.6015156763        1.0189461250
  X        -0.0306790275        0.0738341729       -0.3981947124
  X         3.4101935882        1.8839758890        1.8054648646
  X         3.5332394601        1.6737392392        1.1722607483
  X         1.2203213987        0.2477675657        3.0760261695
  X         1.2629076125       -0.1699702910        2.6969061029
  X         3.2273416279        1.3539446836        1.7126958938
  X         1.7339163375        0.2880532319        2.6035935489
  X         0.9937412398        0.3794325160        2.4112427676
