     224
 Particles+Wannier centers. Iteration:1_200
  O         0.8462275253        0.4427465502        3.2588734326
  H         1.2754608798        1.0793101193        2.7388261474
  H         0.5540882048       -0.2907299645        2.7331570425
  O         0.6647675247        0.5221947955       -4.1154653825
  H         0.9066928106        0.5683969058       -5.0424466652
  H         0.5710238140        1.4475758202       -3.8082420421
  O        -3.9079057978        3.1904965335       -4.4759735784
  H        -4.6804091384        3.2279207173        5.0174646597
  H        -3.6778526171        4.1264991005       -4.2877633573
  O        -3.3467415701       -0.3814578785        1.1764516193
  H        -2.7439241438        0.3782116716        0.8928781287
  H        -3.8705299311        0.0353836521        1.8874270109
  O         0.3130612862        3.0331683365       -3.3196698096
  H         1.1370446871        3.4992857973       -3.5151987602
  H        -0.3924023455        3.3215915342       -3.9954147189
  O        -0.4011456941       -3.2182632326        4.7616183852
  H        -0.6816774217       -2.6908583384        3.9794491772
  H        -0.6853875005       -4.1170065212        4.5258455115
  O        -3.5711774081       -3.6964053965        1.1867608814
  H        -3.9714944075       -3.3296284285        2.0495030218
  H        -3.5481395728       -2.8770245226        0.6818847300
  O        -0.1228231437        0.3488675817       -0.8522367508
  H         0.8172290158        0.1155955740       -0.8451292550
  H        -0.4936963836       -0.4346625653       -1.2618495461
  O        -1.0207753582        4.0962681011        4.2630096208
  H        -0.9109442364        3.9861118232        3.2841442170
  H        -1.9862752237        3.8455042713        4.4868399657
  O         2.5546900375       -2.6155029401        4.3508144625
  H         1.6485564797       -2.7378775343        4.5544408848
  H         2.7788505004       -1.7270080204        4.7925726949
  O        -0.7176691232       -1.9286081488        2.2952358704
  H        -1.4027898991       -1.1503921155        2.2229548757
  H        -1.0631652349       -2.5131569555        1.5936521089
  O         2.4321820557       -3.0489167198        0.2846157790
  H         3.3109850675       -2.4742300341        0.1717249291
  H         2.5048099866       -3.4575771993        1.1807637564
  O        -2.0486088762        1.1520694313        3.5243416033
  H        -1.9827786041        1.6388445250        2.7269639001
  H        -1.2080013097        1.1548810218        3.9724825752
  O        -4.5166285064       -1.8460464519       -3.3544842261
  H         4.9968052016       -1.1975991582       -3.7433871624
  H        -3.6752408884       -1.2737111182       -3.3039008539
  O        -4.4599026412        0.1700518903        3.7276876400
  H        -3.6044059866        0.5891259134        3.6729397383
  H         5.0129457424        0.9112727336        3.7008775390
  O        -3.2050638484       -4.1678041552       -4.1187100056
  H        -2.3217249356       -3.7879245586       -3.9988062960
  H        -3.7817311478       -3.3728155092       -4.1396327761
  O        -1.7785279267        1.8538334488        0.7747666834
  H        -1.6305055642        2.8435403521        0.7910484414
  H        -1.1044906016        1.5098006974        0.1454132484
  O         2.2390017095        2.2473834131        1.6068655109
  H         2.7324329005        1.7606917101        0.9474068588
  H         1.5776261080        2.7822938732        1.0817569114
  O         4.5069819703        1.9982992759       -1.9315616176
  H        -4.7246746798        1.6222837459       -1.9718832946
  H         4.3046774528        2.3700198508       -2.7581746715
  O         3.3416816060       -0.1228475481       -4.3479155382
  H         2.4451314264        0.1030384623       -4.0910554812
  H         3.6183131237        0.5479273411       -4.9774425894
  O        -0.3772025834       -3.2163873437       -0.6379254506
  H        -0.5900442909       -2.7979256430       -1.4834024088
  H         0.5460550257       -2.8859737856       -0.5150934954
  O        -4.5456378791       -4.8833681488       -1.1301572764
  H        -3.9838500821       -4.3188430544       -1.7615159470
  H        -4.2990037985       -4.6042984909       -0.2311947848
  O         4.6845149991       -1.5164780100       -0.3963239583
  H        -4.6447310336       -1.0309527999        0.0207851867
  H         4.9509842538       -1.6686757939       -1.3466623125
  O        -3.1771428880        1.0663231278       -2.7722504701
  H        -2.3755351539        1.1104845598       -2.2301204299
  H        -3.0058129373        1.7839256064       -3.4885533843
  O        -1.0726036818       -1.5259097143       -3.3029913257
  H        -0.5020320927       -0.7400765292       -3.6626844327
  H        -0.6197036865       -2.2693595685       -3.7527361518
  O         0.6253780729        3.2883165652       -0.2920371828
  H         1.4666978637        3.7034346471       -0.7003768596
  H         0.4190498580        2.4910292196       -0.8197758125
  O         3.6108061786        2.4299362097        3.9707200292
  H         3.3657770588        3.1137519402        4.6474811053
  H         3.0897005352        2.6292930589        3.1707835759
  O         2.7719651281        4.8469693085       -1.4549021908
  H         3.7168635957        4.9021748889       -1.4615680722
  H         2.5548218684       -4.5269227603       -0.8608729339
  O        -4.6796648668       -2.7519590760        3.5117435887
  H        -4.5303251761       -1.8342367211        3.8288862264
  H         4.4858278595       -2.9691605602        3.7983682914
  O         2.4606425023        0.1205991576       -0.9454895482
  H         3.1825509003       -0.3580041504       -0.4482347482
  H         3.0207191985        0.7890774505       -1.4148592524
  O         2.6485840265        4.6180694645       -4.3495865418
  H         2.8968285251        4.9324826088       -3.5010608644
  H         2.6866430420       -4.6557187050       -4.8964824192
  O        -1.2555537190        4.5804932560        1.4862282074
  H        -0.7363968024        4.9589262703        0.7741533889
  H        -2.0984546750       -4.9989001169        1.5051410197
  X        -3.4941122752       -3.7624079353       -4.1384983806
  X        -3.2732451123       -4.3173595662       -3.8518840938
  X        -3.2137394245       -4.3299926759       -4.3831932127
  X        -2.7359751734       -3.9636775700       -4.0559740463
  X        -4.4603171680       -2.1041457759       -3.5513555434
  X        -4.6103759575       -1.8826319263       -3.0482113936
  X        -4.0825835498       -1.5586221785       -3.3326235811
  X        -4.2495907040       -4.5740487360       -1.4459890150
  X        -4.8206730017       -1.5168335497       -3.5638555093
  X        -3.8047335522        3.6725968323       -4.3843964351
  X        -4.4998010158       -2.9285217104        3.6711333044
  X        -4.8602128250       -4.8143933287       -1.1837591785
  X        -4.4162323356       -4.7280698790       -0.6712113504
  X        -3.9849690100        3.0493342766       -4.2153360115
  X        -3.6660193300        3.0818988063       -4.6388198765
  X        -4.6502243312       -2.7670700437        3.1732333937
  X         4.9380266325       -2.8538390604        3.6530310906
  X        -4.4474644710        4.9369346847       -1.1651363125
  X        -4.3173106155        3.2195444876       -4.7920411501
  X        -0.8348172606       -1.9152329188       -3.5235597740
  X        -0.5513732303       -3.1229868879        5.0401238557
  X        -4.6138531500       -2.2755244705        3.6733749138
  X         2.7921125685        4.7863889579       -3.9087367693
  X        -3.7692074103       -3.5245900295        1.6072629735
  X        -1.3667901120       -1.5132627593       -3.4079901064
  X        -3.7794333720       -3.8936968028        1.0326835937
  X        -0.5508261444       -3.6797532633        4.6383858401
  X        -3.5510366073       -3.2612159080        0.9159777842
  X        -0.0822078332       -3.2138586466        4.7522307353
  X        -3.2646026534       -3.7957620862        1.2433280313
  X        -1.0083397203       -1.5482212969       -2.9773217040
  X        -3.1804643229        0.7859007238       -2.9047933052
  X         2.6688873396        5.0457329247       -4.6320498803
  X        -3.0753212758        1.4249105401       -3.1313436057
  X         2.8681766043        4.4010769533       -4.4673713007
  X        -1.5237234982        3.9676472514        4.3581269675
  X         2.7224892378       -2.8546307550        4.4987163170
  X        -3.4255432307        1.1728399771       -2.5903556677
  X        -0.5583163328       -2.9495087930        4.3704062101
  X         4.8271460244       -1.5901657509       -0.8799907606
  X        -0.7970846144       -1.1392840073       -3.4832636957
  X         2.3490205205        4.5331904273       -4.3208924390
  X         2.6841826501        4.9245028691       -1.7511366240
  X        -2.7458380766        1.0959865931       -2.4841138908
  X        -0.9951255940        4.4182094250        4.3140569425
  X         2.0747684498       -2.6747400616        4.4618137801
  X        -0.4908020433       -2.9976404536       -1.0884660921
  X        -4.4894204120       -0.0022418884        3.9802108014
  X         2.6602487140       -2.1697119255        4.5785610868
  X         3.3040286621       -0.4015122135       -4.5235528647
  X         4.4134253668        2.1896858788       -2.3930812093
  X        -0.8391221083        3.8931084042        4.4293676923
  X         4.6320381822       -1.8006692655       -0.2524658461
  X         3.2593226537        4.8662631432       -1.4483379756
  X        -5.0194566655       -1.2799890598       -0.1912438047
  X        -4.4883912472        0.0346233972        3.4426871651
  X         2.5817634340       -2.5812102756        4.0483047448
  X         2.6586898740       -4.8764956737       -1.1525394103
  X         4.9576443957        1.8020341906       -1.9696722114
  X        -0.5541384456       -3.0828588217       -0.4155420192
  X        -0.3634180121       -3.5214301747       -0.6758178151
  X        -4.0312034062        0.3928977137        3.7085513955
  X         3.5394760077       -0.1269224021       -4.1077348746
  X        -0.0395984345        3.1962946813       -3.6681875407
  X         4.5163407981        2.2248094149       -1.7425074823
  X        -1.6835516728        4.8534462959        1.4927283519
  X        -0.9761943890        4.0194696450        3.7664116372
  X         3.4763592796        0.2390788915       -4.6785363664
  X         4.4335958419       -1.3109872781       -0.3966697663
  X         2.6578582357        4.5645647704       -1.3192575694
  X        -4.7851751668        0.5593262482        3.7231068173
  X         0.7345543822        3.2841924373       -3.4362450205
  X         0.1019601648       -3.0422012852       -0.5812684327
  X         2.8872584007        0.0092472028       -4.2148835557
  X         0.2231483975        3.1012442580       -3.0393657445
  X         3.4798314828        2.7824805401        4.3160103646
  X        -3.5559884920       -0.4689206075        0.9224292896
  X         4.2836428096        1.7565067389       -1.8781635620
  X        -0.7670825908       -2.0725377360        2.5919978463
  X        -2.2829668959        1.2705703747        3.7007138501
  X         2.8580122328       -2.7695182222        0.2454044198
  X        -1.1076343410        4.6016062107        1.7721880804
  X        -3.1692218929       -0.5978556745        1.3110774683
  X        -0.9865693170        4.7929981160        1.1202087382
  X         0.3721016934        2.7057234259       -3.4000402965
  X         2.4587598486       -3.3008840611        0.0742798389
  X        -0.8975679521       -2.2358559633        1.9295358945
  X        -3.6184976999       -0.1565664615        1.5371731581
  X         3.9200423671        2.4744395187        3.9106210569
  X        -2.0920237560        0.8639957882        3.4349613380
  X         0.3812338341        0.3398332033       -4.0752082089
  X         2.4786629289       -3.2582469785        0.7645907697
  X        -1.0651036403       -1.5315156368        2.2569970369
  X         3.5283375210        2.1397868707        4.0816100642
  X        -1.3379094343        4.2815796267        1.3826356137
  X        -1.6051612409        1.1722777552        3.7569732688
  X        -3.0492652204       -0.0029929599        1.0292017239
  X         0.9347098792        0.4164159590       -3.9858469928
  X         2.1742594741       -2.8694515234        0.2771763228
  X         0.6115289686        0.9847402401       -3.9760996602
  X         0.7775182721        0.5606809941       -4.5946587631
  X        -1.9971963338        1.4218968630        3.1128365708
  X        -0.4371278946       -1.8154867885        2.2157233011
  X         3.3432242838        2.5465154802        3.5718383875
  X        -0.3267557118       -0.0658101100       -1.0682903201
  X        -2.0716123453        1.7640184185        0.6684513695
  X         2.3445745410       -0.0690844013       -1.1416510816
  X         0.3938175382        3.4853093754       -0.3135179512
  X        -1.7171067171        2.3503810563        0.7673177575
  X        -1.7033820016        1.7553497223        1.0677771330
  X         2.7363910605        0.4665540934       -1.1856527556
  X         2.8214997808       -0.1182595580       -0.6795153030
  X        -0.1645007180        0.5959382847       -1.0414513569
  X         1.0439637189        3.4818980877       -0.5097537293
  X        -0.2388763192        0.3777310039       -0.5523434162
  X         0.5301328069        2.8699221768       -0.5721108440
  X        -1.4310481029        1.6900595668        0.4559657980
  X         1.0393293925        0.3441772182        3.4888735451
  X         2.2567337825        0.2678359408       -0.7439810897
  X         0.3428511931        0.2313398452       -0.8435528400
  X         0.7316593903        3.1788928632        0.0178410897
  X         0.5872823158        0.5752880489        3.3585517788
  X         0.7077026462        0.0609204018        2.9665181553
  X         2.4421615912        2.4337564540        1.7832698491
  X         1.0705556081        0.7630907781        2.9708279647
  X         2.5010132312        1.9970934220        1.2511662209
  X         1.9220384293        2.5186117145        1.3461489997
  X         2.0697844230        2.0273785985        1.7702334499
