     224
 Particles+Wannier centers. Iteration:1_650
  O         1.6332002157       -0.3795454575        3.8630806496
  H         1.9661387590        0.4595408385        3.3027759258
  H         1.2517412205       -0.9150955957        3.1967363854
  O         0.5953236158        0.1575634766       -3.6716749820
  H         0.9338234026       -0.0020249386       -4.5855347241
  H         0.5137438544        1.1402533649       -3.6411319007
  O        -4.1235337555        4.0728609451        4.8700432681
  H        -4.8628293806        3.9401098486        4.2328345252
  H        -4.0959054499        5.0091083102       -5.0364294486
  O        -3.4163908834       -0.3717483722        0.9542545992
  H        -2.8197621832        0.4601563455        0.9137764758
  H        -3.9318407102       -0.1419157680        1.7442827020
  O         0.3863033037        2.7305490526       -3.9171404904
  H         1.2218612857        3.2436097102       -3.8773195810
  H        -0.3705586786        3.2363405390       -4.2073005722
  O        -0.8026643651       -3.1233729484        4.2558508461
  H        -0.8215925650       -2.6957501512        3.3962822095
  H        -0.7826079866       -4.1103144972        4.1073208670
  O        -3.3332910352       -3.5340277326        1.4130479520
  H        -3.8824480152       -3.4391562886        2.2175897608
  H        -3.0921100002       -2.5778462335        1.2818794023
  O        -0.1537904004        1.0674691695       -0.7062006852
  H         0.7255917388        0.9298004688       -1.1622373177
  H        -0.5278911404        0.1542853158       -0.8478689840
  O        -1.6623499599        4.0841649126        4.2476671704
  H        -1.3294822069        4.1448086205        3.3561015934
  H        -2.6417097666        3.9738770391        4.2910282937
  O         1.8920546410       -3.6166800026        4.7892958073
  H         0.9543016466       -3.3585503537        4.7146319679
  H         2.2033011466       -2.9141611136       -4.7086071288
  O        -0.3844917337       -1.6706007375        1.7534079746
  H        -1.0918001602       -1.3994019153        1.0577753143
  H         0.1609730547       -2.2921039762        1.2300561253
  O         3.8068464998       -3.6020557477       -0.0993072003
  H         4.5908364603       -3.4257960776       -0.6569422344
  H         3.9447276585       -3.2479430596        0.8221248205
  O        -1.8324977708        1.0223999583        4.6294970377
  H        -1.5329051588        1.7706773103        4.0844506704
  H        -1.2475677729        0.3052310159        4.3283498039
  O        -3.6287314330       -1.0599943995       -3.7570280157
  H        -4.4480622972       -0.7862784933       -4.2292443524
  H        -3.0442925451       -0.2339147340       -3.7533792333
  O        -4.7394024772        0.1329348314        3.2736009869
  H        -3.9079775930        0.3683782065        3.7555511592
  H         4.7410616125        0.8912309267        3.5022573607
  O        -3.2516357326       -3.6682693019       -4.2184565478
  H        -2.2962053324       -3.6675863344       -4.3966699375
  H        -3.4833732335       -2.7135681177       -4.2887397381
  O        -1.6514831751        1.8193282860        1.6136745626
  H        -1.8471571618        2.8162228901        1.2950187939
  H        -0.7488202869        1.6003377731        1.3248599928
  O         2.1003303377        2.2147357032        1.6036611745
  H         2.5964195507        1.8241427721        0.8657130086
  H         1.5239625385        2.8847419319        1.0830192153
  O         5.0017819442        2.3253840108       -2.6962455021
  H        -4.2600289316        1.8381891900       -2.6005602717
  H        -4.8151984372        3.0569038952       -3.2964924191
  O         3.3016574687       -1.2038154712       -3.9524851237
  H         2.8842998407       -0.6575517261       -3.2234395223
  H         2.9876491366       -0.7755438249       -4.7788710545
  O         1.1281147493       -2.8161848966       -0.1006173979
  H         0.8496213763       -2.2747509765       -0.8882854471
  H         2.1007653168       -2.9153763885       -0.2701417671
  O        -4.2058539825       -4.2957239686       -1.5895805932
  H        -3.6902204737       -4.1080912330       -2.4308884241
  H        -3.6409889170       -3.9045696509       -0.8671162181
  O         4.9653675908       -1.0550040236       -1.2190852335
  H        -4.5106050215       -0.8051702990       -0.5166800148
  H        -4.7191363807       -0.9594081224       -2.0630180222
  O        -2.3670365960        1.3731666831       -2.8695286251
  H        -1.5312999318        1.1494888497       -2.3206219051
  H        -2.0362721194        1.2811257970       -3.8514234732
  O        -0.6354983696       -1.5954743336       -1.9285681384
  H        -0.1372663020       -1.1761934415       -2.7251355751
  H        -1.3778843061       -2.0999298778       -2.2887567652
  O         0.8472143318        3.7573459128       -0.2565907166
  H         1.7099828372        3.8458577010       -0.7981853047
  H         0.2120637454        3.0846513151       -0.4962928679
  O         3.8097304911        2.2718179477        3.9682079646
  H         3.2805710863        2.5699030725        4.7279598812
  H         3.2217262787        2.5651576916        3.2042716178
  O         3.3233482153        4.3084883904       -1.3400280239
  H         4.1238330532        3.8212765671       -1.2308971180
  H         3.3524936451       -4.9876897922       -0.6548263021
  O         3.7240168574       -2.5353785476        2.6252613820
  H         3.8758299813       -1.7132470626        3.1002115852
  H         2.9746952997       -2.9779771584        3.1420531354
  O         2.7391726118        0.9243858664       -0.9676561781
  H         3.2377039093        0.1100661573       -0.9526101567
  H         3.2425235310        1.5961028603       -1.4917078913
  O         2.7378264049        4.0396827117       -3.9627892192
  H         2.8822354746        4.1813183082       -2.9765934547
  H         2.6208454099        4.9455587136       -4.3266824809
  O        -1.4543921246        4.5618281853        1.2714604633
  H        -0.5913103865        4.8255704453        0.8456858374
  H        -2.0733282852       -4.7863341451        1.2870063899
  X        -3.4002758645       -3.8509800907       -4.4433458244
  X        -3.2908391968       -3.7428416299       -3.8980769972
  X        -3.3666005437       -3.1895582013       -4.2695890584
  X        -2.7483785439       -3.6629093153       -4.3079543088
  X        -3.9383695070       -4.1899451818       -2.0096188644
  X        -4.1270865578        4.5595755589        4.9553677780
  X        -3.5012087742       -1.3210740083       -3.9198288508
  X        -4.4742438722       -4.1198951846       -1.5827282999
  X        -4.2058772905       -4.5959121635       -1.5433969957
  X        -3.8958248129       -4.0844496731       -1.2154766377
  X        -3.7192755472       -1.0902617917       -3.4596345540
  X        -4.1973933277        3.9248237158       -4.9707103979
  X        -4.0504408791       -0.9055009157       -4.0102262474
  X        -3.8280339570        4.0064093545        4.7066879406
  X        -3.3320840922       -0.6485044320       -3.7811016326
  X        -4.5100317258        4.0194150130        4.5305291146
  X        -1.0588495874       -3.0641730827        4.4221952913
  X        -2.1422305972        4.0338644091        4.2314425656
  X        -3.6182330576       -3.4884806220        1.8400202753
  X        -4.9470336670        2.7112243761       -3.0078484850
  X        -3.5169372998       -3.6052380109        1.1798397530
  X         3.6167822659       -1.1694822022       -3.9397562894
  X        -4.9004811409       -0.9858031893       -1.6598660766
  X        -3.0612848655       -3.7121094307        1.4769356253
  X        -0.5034487726       -3.0615811364        4.3767852714
  X         1.9297895717       -3.9046853688        4.9354278070
  X         2.6847158208        4.5121597370       -4.1412252457
  X        -0.7916312692       -3.6299208759        4.1566380116
  X        -3.2018901403       -3.0405577268        1.3502261381
  X        -1.5900942248        4.3655180508        4.3716151726
  X        -1.0296840724       -1.8634787476       -2.1298194065
  X        -4.6617515513        2.0700492248       -2.6487419521
  X         4.2093455524       -3.5009703939       -0.3619101629
  X         4.7992307752        2.1523580930       -2.8442029863
  X         1.4112554820       -3.4931382647        4.7596964294
  X         2.0517247580       -3.2513640390       -4.9927549039
  X         3.1617700116       -1.4919686411       -3.9529625183
  X        -2.5790305643        1.1296543629       -2.8385994298
  X        -1.5319432397        3.8255195141        4.3754343678
  X         2.9826952623        3.8973878753       -4.0985822818
  X         4.9328149578       -1.3511377293       -1.1887471659
  X         2.8130524007        4.1150685601       -3.4797190203
  X        -0.8210289903       -2.9191098384        3.8033125016
  X        -2.4553535588        1.6589080225       -2.8210888272
  X        -2.1988492355        1.3268075485       -3.3452202415
  X         2.0269117040       -3.5508890384        4.5014119142
  X         3.3087292570        4.4064270023       -1.6551287053
  X         4.9308599547        2.4500091503       -2.4136180450
  X         4.7040415752       -0.8606659750       -1.2015734060
  X         3.0818446181       -0.9130876168       -3.5784379720
  X         3.8967671590       -3.4357230442        0.3694651154
  X         3.9765542914       -2.7075330077        2.6723490396
  X         3.5553935851       -3.4298323593       -0.2102554665
  X         3.1363631135       -0.9673300907       -4.3786256043
  X         2.4320460398        3.8921556751       -3.9875404440
  X        -1.5074105983        4.1101628417        3.7666660780
  X        -0.4338453807       -1.7977390191       -1.7871639621
  X        -0.4045449667       -1.4076460722       -2.3341270312
  X        -4.7965588752       -0.9149318755       -0.8721541011
  X        -1.9379197852        1.2540174423       -2.5937091555
  X        -1.7890966374        1.0791980683        4.9646812019
  X         3.7454943194        4.0528274080       -1.2658749019
  X         3.7498745722       -3.9523333588       -0.1040446939
  X         3.3435703492        4.6819151326       -1.0251319809
  X        -4.8521985505       -0.1318910335        3.3971764239
  X         3.3352381440       -2.7531398159        2.8886933566
  X        -1.7597938108        4.9509513921        1.2557392383
  X         3.7901526194       -2.0972503543        2.8761587354
  X        -0.7509628366       -1.3498650376       -1.7608993364
  X        -0.0006048317        3.0152819841       -4.0704445113
  X        -2.1223467405        0.9470771393        4.5282166780
  X        -4.3084066578        0.2594342900        3.5322978375
  X        -1.5185101303        0.6436925964        4.4730050364
  X        -4.6569124173        0.1390093057        2.9507591846
  X         3.6328951913       -2.4809452168        2.3256318524
  X         3.0579675787        4.1118284713       -1.2431760365
  X        -3.6155922065       -0.3831884341        0.6912061053
  X         4.0592647047        2.4543570797        3.9617797562
  X        -1.3842543839        4.5238018738        1.5752415513
  X         0.7884136880        3.0087454038       -3.9087429870
  X        -1.5786896351        4.2942549081        1.1220448029
  X        -1.6692538016        1.4090516833        4.3553644572
  X         0.3317296759        2.6370036745       -3.6317817835
  X         0.3088933959        0.0001862557       -3.6286623777
  X        -3.2306476303       -0.6324093253        1.0236572610
  X        -5.0394362265        0.5095165314        3.3820534175
  X         0.9936783150       -2.5273832621       -0.5043547004
  X        -3.6786476500       -0.2586024877        1.3540427902
  X         0.4279303825        2.4888040736       -4.1133742739
  X         3.5303563227        2.4067648243        4.3642087464
  X         0.8254192103        0.0729420378       -3.4817018886
  X        -1.0210427630        4.7150843066        1.0469349411
  X         3.8505508962        1.9386743207        3.9478547402
  X         1.6237295581       -2.8526897054       -0.1764585385
  X         0.7616508503        0.0805236214       -4.1448369844
  X        -3.1170043628        0.0398493313        0.9247662074
  X         1.0109625395       -3.0873224054       -0.1476604730
  X         0.5462889057        0.6371924631       -3.6532941217
  X        -0.5380254858       -1.8322467108        2.0008736476
  X         1.0573087652       -2.6517433519        0.1842645087
  X         3.5087663469        2.4205461111        3.5837327808
  X        -0.7529835247       -1.5360305850        1.3904728078
  X         1.8957201372       -0.5195780726        3.9761769849
  X        -0.1179734750       -1.9909204233        1.4955079824
  X         0.6994274438        4.0337774074       -0.2456091416
  X         3.0103784690        1.2591158448       -1.2471309764
  X         1.4045537399       -0.2814166920        4.0731556148
  X        -1.7359610275        2.2998869607        1.4435091680
  X         1.2471221203        3.7725445706       -0.5525846340
  X        -0.2141631626       -1.4225107797        1.8134377617
  X         1.4322717307       -0.6655841859        3.5096702120
  X         3.0036600123        0.5017477796       -0.9796323123
  X         0.5316888704        3.4021308192       -0.4184479021
  X        -1.6496462995        1.8285666979        1.9289643806
  X        -1.8585472322        1.6032164977        1.4545023316
  X        -0.3520334812        0.5957043584       -0.7731631081
  X         2.4476608019        0.8796670360       -1.1040931513
  X         1.7930883280        0.0404117239        3.5797026345
  X        -0.3251288903        1.2630136339       -0.8898475879
  X         0.9574979847        3.6387018341        0.0423593607
  X         0.2958189749        0.9962583951       -0.9378099807
  X        -1.1720968451        1.7229123363        1.4601795436
  X         2.7473697949        1.0291509644       -0.6704450375
  X        -0.1138236974        1.1196512308       -0.4004102876
  X         2.3096808438        2.3703393838        1.8124863194
  X         1.8156323240        2.5455298549        1.3599374244
  X         2.3670548842        2.0186860316        1.2211394166
  X         1.9216474208        1.9856100382        1.7180593617
