     224
 Particles+Wannier centers. Iteration:1_1800
  O         1.1236725785        0.0030743904        2.5427259643
  H         1.5303297490        0.4250354439        1.8258598374
  H         0.2712323197       -0.4644241171        2.3204850937
  O         1.1974601875        0.3638384334       -4.8730069030
  H         1.3154030798        0.2423718341        4.2569513981
  H         1.0381877097        1.3479651667       -4.6895644319
  O        -3.9862012556       -4.9981979465       -4.8196073321
  H        -4.6164518654        4.9655597795        4.5536903634
  H        -3.7976636185       -4.0319863827       -4.7812838787
  O        -3.6199956157       -0.5195500046        1.8012010125
  H        -2.9983472582        0.1369088110        1.3669329621
  H        -4.1580613516        0.0832881829        2.4014229007
  O         0.3646831934        3.0932863990       -4.1134824087
  H         1.1837661242        3.6227443916       -4.0493051523
  H        -0.0376523816        3.5965854509       -4.8430951170
  O        -0.3856981905       -2.8519499019        4.5916960697
  H        -0.6611971230       -2.3404145219        3.7674334596
  H        -0.6162833757       -3.7990722035        4.4284940491
  O        -3.9414552939       -4.4655263336        0.6681573252
  H        -4.3289292523       -3.9426506862        1.3581628336
  H        -3.3072664161       -3.9150911621        0.2329509339
  O         0.4932101083        0.5385023752       -0.9488549526
  H         1.3637408540        0.9950885924       -0.9795335577
  H         0.5296801804       -0.1739020623       -1.6338920221
  O        -1.4396083045        4.5831720110        4.4697017266
  H        -1.5511744923        4.3798161040        3.4951504821
  H        -2.4026479230        4.5923043115        4.8846816799
  O         2.5328601867       -3.0237893927        4.7325829063
  H         1.5855979855       -2.7341678105        4.7146010762
  H         2.9553507237       -2.3534794165       -4.8569271005
  O        -1.2928082913       -2.1197276974        2.3221798689
  H        -2.1174067349       -1.8399601498        1.9064821502
  H        -0.7649969976       -2.3814474515        1.4922317829
  O         2.2088644498       -2.6551533237        0.3846041679
  H         2.9582908989       -2.2213824836       -0.0342051225
  H         2.6117256555       -3.1281615068        1.1007237283
  O        -2.1769206783        1.3107442114        3.6225354312
  H        -1.6865267373        1.2376116354        2.7521339365
  H        -1.7342068562        0.6209383845        4.1766370016
  O        -3.1706827424        0.4015698882       -3.7345641484
  H        -4.0327314188        0.6180596456       -3.3831683494
  H        -2.5299213967        1.0875756296       -3.3303562594
  O        -5.0108121758        0.5907293753        3.7824759955
  H        -4.1200043517        0.7933427293        4.2062709459
  H         4.7109495350        1.4991759884        3.8815302647
  O        -3.2731485173       -2.3624566004       -4.3946813103
  H        -2.4192878985       -2.2468481300       -4.7824375950
  H        -3.3804897479       -1.3992084216       -4.0811754276
  O        -1.7790948322        1.3107285048        0.7042028369
  H        -1.7285609813        2.2580646418        0.9408691224
  H        -0.9259488220        0.9713273848        0.3777335647
  O         2.9386161936        1.7255036654        1.6044764058
  H         3.4677668085        1.4510497205        0.8037450959
  H         2.5006109228        2.4926205210        1.1793958330
  O        -4.1486309760        3.4706772809       -2.5339849523
  H        -3.2147719487        3.3296272074       -2.2335722680
  H        -4.0372516755        3.9325445036       -3.3994030314
  O         3.7270781992       -0.6739194354       -4.2082917815
  H         2.8179973380       -0.2990049584       -4.1298705959
  H         4.0610082163       -0.4093405963        5.0379032728
  O        -0.5054360840       -3.4025417153       -0.0463281875
  H        -0.9604692565       -3.1059236523       -0.8560225236
  H         0.4344349475       -3.1722861046       -0.1391664022
  O        -3.1361957614       -3.3681889841       -1.6435837872
  H        -3.1929618038       -3.0382764662       -2.5889382864
  H        -3.7312765990       -4.1127745773       -1.5924631051
  O         4.8769963243       -1.5744681367       -0.4761082009
  H        -4.7897574668       -1.0382895243        0.2492369764
  H        -4.5896951104       -2.2714034823       -0.7500330291
  O        -1.4068994274        2.7790427351       -2.1399738914
  H        -1.0044473219        1.9923223796       -1.7735410864
  H        -0.8202880263        2.9560255877       -2.9728990785
  O        -0.1579972793       -1.8575975293       -2.5118614761
  H         0.0155740397       -1.8805184813       -3.4991931063
  H        -1.1280714973       -1.6204140807       -2.4407237131
  O         1.3529847197        3.2758743151       -0.5308570451
  H         2.0456183310        3.7411995786       -1.0281365960
  H         0.4945768668        3.4677347525       -0.9772286254
  O         4.3571670454        3.1593942382        3.4409890943
  H         3.6972397783        3.4360652638        4.1105469902
  H         3.8154604376        2.7350279840        2.7428304603
  O         3.7515454965        4.6862116495       -0.9253771767
  H         4.6536964119        4.2927313908       -0.7090905354
  H         3.6935722666       -4.5778688781       -0.4431104841
  O         4.5081844548       -3.0648638711        2.5144233144
  H         4.8931531059       -2.2322009116        2.4624035977
  H         3.7105831665       -2.9759389853        3.1382099283
  O         3.8687777474        1.2627117204       -1.1636248852
  H         4.2354608488        0.3530885307       -1.0734259535
  H         4.6481843194        1.7580052317       -1.5179991132
  O         2.8234208983        4.4986765773       -3.8862690748
  H         3.1807340736        4.4696414988       -2.9781864825
  H         2.7936754637       -4.6602128741       -4.1995441230
  O        -1.5967906278        4.0880654372        1.7551209039
  H        -1.0181703192        4.7046603649        1.2530215054
  H        -2.5181614183        4.3722967055        1.5084229500
  X        -3.9065644929       -4.5065179487       -4.8059667668
  X        -3.4807122463       -2.4577310316       -4.6052869545
  X        -4.1106055674        4.9998563317       -4.5425319769
  X        -3.2273688170       -2.5407110863       -4.1176839346
  X        -3.6939086342        4.9634126910       -4.9152895643
  X        -3.1706550947       -3.2124395391       -2.1230101381
  X        -3.3452561560       -1.8873241746       -4.2440982201
  X        -4.3189858617        5.0425991648        4.8980965350
  X        -2.8209937213       -2.3056569645       -4.6010047389
  X        -3.4483961454       -3.7676372454       -1.6326770849
  X        -3.2791112324       -3.1458612330       -1.4576588455
  X        -2.8497552798       -3.4579361796       -1.5781010381
  X        -4.0852952929        3.6973783554       -2.9793666152
  X        -4.2787035847        3.6742391618       -2.3354745351
  X        -1.9087465407        4.5747076513        4.6665562537
  X        -3.6674855079        3.4062775032       -2.3863258636
  X        -4.2727589149        3.1844671586       -2.5744356216
  X        -3.1008811171        0.0905496973       -3.6450914815
  X         2.8153030563        4.9886305319       -4.0206260423
  X        -3.6042222460       -4.1606024497        0.4502953962
  X        -0.5003400323       -3.3312123296        4.4924269339
  X        -3.6237244757        0.5255477867       -3.5364159784
  X        -1.3323831079        4.8978529147        4.4805793788
  X        -3.1863414490        0.4635749402       -4.0305821515
  X         2.7475321102       -2.6731678804        5.0023093360
  X        -4.1306011887       -4.1800932323        1.0256851491
  X        -4.1583313794       -4.5229032404        0.4594474434
  X         3.0210129464        4.3523123059       -4.0733128230
  X        -1.2468088784        4.3505570333        4.6051920016
  X         4.7190019721       -3.2591201354        2.6335636138
  X        -2.8467660195        0.7441363261       -3.5151188005
  X        -3.7779977497       -4.7062155315        0.8037980754
  X         3.6762734328       -0.9952628581       -4.2360238163
  X         3.0062038314        4.5006854745       -3.4124598670
  X        -4.8840180501       -1.9350201516       -0.6022559245
  X        -0.5733477861       -2.7502859055        4.8329122657
  X        -0.6779708325       -1.7320013537       -2.4884139513
  X        -0.0577462365       -2.8245141765        4.6306928114
  X         2.5495880792       -3.3075374856        4.9000258019
  X         2.6567108831       -3.0061316427        4.4271541357
  X         3.7524495038        4.7548383010       -1.2319917761
  X         4.1097947606       -3.0111899860        2.8260355692
  X        -1.5124739313        4.4783125707        3.9838585936
  X         2.5067589171        4.3918835605       -3.8761870728
  X         4.7046795277       -2.6053630404        2.4980471647
  X         3.9157615084       -0.5603633108       -3.9917673934
  X        -0.0833646730       -1.8647693285       -3.0215001600
  X         3.8818707869       -0.5279936148       -4.6600376240
  X         2.0525623512       -2.8681677095        4.7270031761
  X        -0.1358506399       -2.1414029399       -2.4012561905
  X        -0.5183587832       -2.6066875314        4.1835505446
  X         4.8530597014       -1.3753269760       -0.7143254464
  X         4.2148950477        4.4928248796       -0.8008941641
  X         4.4005042633       -3.1242275517        2.2278589980
  X        -1.7206796162        2.7166834506       -2.2241134326
  X         3.7325819780       -4.9703371792       -0.6647808314
  X         4.6113992528       -1.7105659435       -0.3593678404
  X        -0.7334629396       -3.2408767437       -0.4734139063
  X         3.2667457797       -0.4715604424       -4.1760151109
  X        -4.5586764554        0.6844468746        4.0073623461
  X         0.0000660503       -1.6031595962       -2.3856672014
  X         4.5155683001        3.4043966630        3.3517040008
  X        -1.3272024775       -2.3645284385        2.5024111635
  X        -1.1328811501        2.8557034325       -2.5483453527
  X        -4.9895917403       -1.3134006728       -0.0999714602
  X        -1.3491831636        2.9953271029       -1.9451703305
  X         0.1589930155        3.1238424538       -3.8366842887
  X         3.5240084019        4.4967555891       -0.8192447231
  X         4.9250591171        0.3685751686        3.9591237699
  X        -0.5384271339       -3.7131055693       -0.0179073668
  X        -2.0670176483        4.2401000839        1.6238671991
  X        -3.4541292648       -0.7384223111        1.9578637409
  X        -0.6107203874       -3.2076351908        0.2059204135
  X         0.7778964027        3.3597277816       -4.0629572274
  X        -1.7256458017       -1.9820123162        2.1091934075
  X        -4.9340268356        0.5365288742        3.4540881887
  X         3.9972104229        3.3054952462        3.7859947777
  X         4.4986465571        2.8994049470        3.5792364095
  X         0.1615425289        3.3411549039       -4.4909278621
  X        -2.4789913837        1.2171809410        3.5836006967
  X        -1.1530738829       -1.8617083858        2.4546978077
  X        -3.8306646108       -0.6198853409        1.5581637336
  X        -1.1991948810        2.3541300836       -1.9556797505
  X        -0.0261405149       -3.2870495433       -0.1145963889
  X        -1.5602873495        4.1480022573        2.0799290402
  X         4.8898227226        1.0356132332        3.8309352100
  X        -3.8767019994       -0.2247761221        2.0989404991
  X        -1.9363224165        0.9378374199        3.9098468648
  X         0.4504682262        2.7961562656       -4.2194481162
  X        -1.3016449716        4.4132205019        1.4909309246
  X        -2.1022731799        1.5781059706        3.7429902583
  X         4.2811891046        1.5158186298       -1.3482290610
  X        -1.0212745645       -2.2453790839        1.9126705802
  X        -3.3059616507       -0.1915580675        1.5837205514
  X         2.6026341509       -2.4359881262        0.1667080959
  X         4.0743168770        2.9688777074        3.0847269099
  X         2.4297987535       -2.9113569826        0.7651799341
  X         4.0647496946        0.7893053283       -1.1238017780
  X        -1.5578808408        3.7870722909        1.6352879871
  X         2.0801041982       -2.8661848549        0.1850046288
  X         1.4778201280        0.2742644869       -4.7186909426
  X         3.6415361369        1.2628155662       -1.3626745385
  X        -1.9221561689        1.2612187112        3.1727814473
  X         0.9337510724        0.2244429310       -4.8036683481
  X         1.1265432681        0.8701950027       -4.8005203186
  X         2.0392610095       -2.4499474431        0.5030532332
  X         3.8300648785        1.3594518887       -0.8541769958
  X         1.2631546414        0.3226643755        4.7363678463
  X         1.6975363930        3.5246804180       -0.8056574127
  X        -1.9784018076        1.2781519385        0.4858054046
  X         0.9051667901        3.3886556812       -0.7692665656
  X        -1.7314813333        1.7983672371        0.8176913666
  X         0.5246165812        0.1720907935       -1.2989117705
  X        -1.3276577400        1.1576160263        0.5461015495
  X         1.3503936436        3.3908959955       -0.2409765729
  X         0.2749811092        0.7493574954       -1.0502875498
  X        -1.8474852254        1.1516916740        0.9852635477
  X         0.4522271545        0.4155253854       -0.6625242389
  X         1.4015596640        2.9730396631       -0.5728699308
  X         1.3031268459       -0.2144264373        2.6183842059
  X         3.1379798978        1.8467823746        1.8443204489
  X         0.9520230096        0.7624569455       -0.9721914072
  X         0.6733230638       -0.2249316480        2.4006755150
  X         3.2187055576        1.5838392743        1.2051792544
  X         1.0607768272        0.2151770979        2.7723548847
  X         2.7106249466        2.1290204895        1.3899191457
  X         2.7187624236        1.5067687436        1.6540356251
  X         1.3057626125        0.2195561706        2.1450046155
