     224
 Particles+Wannier centers. Iteration:1_2200
  O         1.1904550476       -0.1747182586        3.0852332205
  H         2.0020868882        0.2781572077        2.8659039988
  H         0.6445547862       -0.2920540256        2.2338211460
  O         1.3345133428        0.8584596575       -4.6199400021
  H         0.9661350097        0.6256012044        4.5628658201
  H         1.1114995391        1.7934109320       -4.4369075824
  O        -3.5673044377       -4.7885460541       -4.9116938225
  H        -4.3062861823        4.9602699689        4.6710499146
  H        -3.7839744391       -3.8581671424       -4.7535046836
  O        -4.2271967136       -0.4583526973        1.3286788019
  H        -3.5881982661        0.0069570575        0.7933374495
  H        -4.2861460941        0.1129507009        2.1797009504
  O         0.4830221963        3.6420349670       -3.8789746307
  H         1.2431301907        4.1440857972       -3.5882421955
  H         0.1501489554        4.0927906404       -4.7039647961
  O         0.1374547709       -2.8526988419        4.2609741302
  H        -0.2231986228       -2.3469756568        3.5185182698
  H        -0.3907337207       -3.6447312526        4.2028978793
  O        -4.0623877145       -4.6933692334        1.0084419604
  H        -4.4379837897       -4.0655016364        1.6830328650
  H        -3.6666473252       -4.1935795650        0.2777138692
  O         0.3632532685        0.5727585359       -0.3193705928
  H         0.8703098222        1.4173458132       -0.2982104823
  H         0.6222565424        0.1353685118       -1.1599527489
  O        -1.0142294496        4.5865971972        4.1032931989
  H        -1.0512264554        4.5329105517        3.0924390233
  H        -1.9464150863        4.8747327572        4.3083781101
  O         2.8777735942       -3.2269205457        4.8431042571
  H         1.9992235771       -3.3428467564        4.4183577637
  H         2.9744075907       -2.2835306879        4.9437443350
  O        -1.1266893027       -1.8386725367        1.9161334694
  H        -1.8434712536       -1.2184090428        1.8767342004
  H        -1.2406706954       -2.3274211465        1.0403450183
  O         2.2594021361       -2.5555701659        0.6444009723
  H         2.8292792931       -2.2212909608       -0.0815043173
  H         2.7722378148       -2.3349035695        1.4269133089
  O        -1.2642896373        1.6309285545        4.0661394517
  H        -1.0954459517        1.6599072618        3.1172807301
  H        -1.1892798992        2.5502758065        4.3373220138
  O        -4.0079258547        0.5816733391       -3.1291756686
  H        -4.2705141726        1.0678228671       -3.9029630462
  H        -3.0936682315        0.9386117061       -2.8691971905
  O        -4.2949695594        1.0488819066        4.0661326865
  H        -3.3166820999        1.1678451654        3.9956922645
  H        -4.6679209130        1.9320936575        3.8444636689
  O        -3.4188698937       -2.0208573174       -4.3608528255
  H        -2.5090221178       -1.6129198141       -4.2551123927
  H        -4.0479978666       -1.2940196502       -4.1341283947
  O        -1.9660835196        1.2656270147        1.0492480896
  H        -2.0078312941        2.0249349371        0.4575004912
  H        -1.2642061989        0.7207361062        0.5740022237
  O         3.3130442458        2.0120493817        1.3958057633
  H         3.6252293487        1.6967490001        0.5447151536
  H         2.7723396822        2.7658337636        1.0573147424
  O        -3.6279287562        3.9213291760       -2.3846541404
  H        -2.7594207345        3.4440162934       -2.2556717230
  H        -3.5587455951        4.3589672343       -3.2487100306
  O         3.5541876459       -0.5068811916       -4.7601984627
  H         2.7547447809        0.0974799467       -4.6295113445
  H         4.3171919162       -0.0145884395        4.9562409613
  O         0.1101793895       -4.0906133831       -0.0716514639
  H        -0.2394930297       -3.6734341423       -0.9195103668
  H         0.9988343605       -3.6185963421        0.2121770091
  O        -4.2259165883       -3.4230486154       -1.5929245960
  H        -4.0574113620       -2.9245247026       -2.4511469092
  H        -4.1562996441       -4.3453230815       -1.9512021977
  O         3.8686616842       -1.3033525200       -0.9623425765
  H         4.3818947332       -1.0738883000       -0.1629918313
  H         4.4139553615       -2.0770068659       -1.3472859038
  O        -1.5888666265        2.0735763395       -2.4936036906
  H        -1.3095027544        1.5300742055       -1.6974101984
  H        -0.8208330223        2.5587275480       -2.8860899384
  O        -0.6955587307       -1.1784722659       -3.6643686364
  H        -0.0465773687       -1.7945892733       -3.9464682503
  H        -0.3540268174       -0.2922315619       -3.7212358604
  O         1.3556434263        3.1033781831       -0.6753461383
  H         2.1897384614        3.3370701066       -1.0409947295
  H         1.0010964621        3.9734944788       -0.4827576657
  O         4.5267244926        3.4184322976        4.0456197690
  H         4.0896630322        3.6550834343        4.9202865968
  H         3.7624633206        3.2548276910        3.4665294343
  O         3.6509102584        4.5530831781       -1.1064624758
  H         4.5679194645        4.2051834533       -0.9330842724
  H         3.4802285696       -4.7469533705       -0.4540835591
  O         4.7893434088       -2.9588015372        3.0435252580
  H        -4.6616517717       -2.5155091435        3.7515627903
  H         4.0792060663       -3.3731426839        3.5835745068
  O         4.1723193896        1.5839193829       -1.2908359613
  H         4.2308855649        0.6936726121       -1.6738205078
  H         4.8101447897        2.2222093029       -1.7242495797
  O         3.2004008580        4.4374337891       -3.7408954715
  H         3.4210428613        4.4669358625       -2.8149649292
  H         3.3428802964       -4.7335689701       -4.0392865490
  O        -1.4741946231        4.1482203308        1.2916254311
  H        -1.0880019956        4.7938381942        0.6177535240
  H        -2.4689000874        4.4441612576        1.3853243670
  X        -3.6897988836       -4.3102132050       -4.8390198993
  X        -3.4595623012       -2.2511349876       -4.1307876710
  X        -3.5749356415       -4.9382839548       -4.6196488797
  X        -3.2947038317       -4.8070177758        5.0067420378
  X        -4.1340699601       -3.1648541331       -2.0332309588
  X        -3.9592179980       -4.9608472284        4.9192158235
  X        -3.4723605991       -2.1126623785       -4.6625269484
  X        -3.7404908548       -1.6432844722       -4.2483122243
  X        -4.2020781360       -3.8970134987       -1.7770936923
  X        -3.9889064449       -3.3826720880       -1.3943339371
  X        -2.9661398282       -1.8108697368       -4.3105679510
  X        -3.5836463205        4.1369104250       -2.8353213655
  X        -4.5320222927       -3.3566977383       -1.5170147572
  X        -3.6599414081        4.1673119129       -2.1737500567
  X        -3.8528258877        3.7065379843       -2.3962905066
  X        -3.1818191423        3.6997413234       -2.3218198291
  X         3.2844333063        4.9186020419       -3.8813669433
  X        -4.9824575910       -2.7408886701        3.4216070316
  X         2.8848511472       -3.3792872990       -4.9681231044
  X        -3.9743238660        0.2783192092       -3.2276859625
  X         3.4001261327        4.2389005574       -3.9223152288
  X         4.9688098997       -3.1913394905        2.8723450538
  X         4.4444990875       -3.1803923830        3.3231320223
  X         3.3279475899        4.4511330854       -3.2706168536
  X        -3.8543592049       -4.4098639236        0.6354415894
  X        -4.1344861531        0.8541316904       -3.5363671621
  X        -1.4883518419        4.7284657835        4.2039486071
  X         3.1073610662       -3.3145889571        4.6155055675
  X        -4.2385035874       -4.3580369752        1.3384545843
  X        -3.5376336404        0.7672435007       -3.0089926774
  X         2.9122172482       -2.7428577897        4.8965338940
  X        -0.7231222366       -1.2242741292       -3.3660207150
  X        -4.1993207391        0.6515942282       -2.9013112370
  X        -4.2950716499       -4.8409353584        0.8855509952
  X         2.8839676203        4.4006276257       -3.7489826581
  X         4.6577724394       -2.7324395599        2.9005280581
  X         4.6735013066        3.6835193820        3.9568907384
  X        -3.8130836783       -4.8638710003        1.1460946268
  X         2.4274691567       -3.2858505443        4.6277845123
  X        -0.1450335143       -3.2686446718        4.2293545101
  X         3.6446721853        4.6596795192       -1.4158337764
  X        -0.3352641533       -1.4889395222       -3.8183276054
  X        -0.8182756520        4.8252372818        4.1905712444
  X         3.6475697555       -0.5763565277       -4.4860538881
  X        -0.9649603480       -1.2111033150       -3.8482548467
  X        -0.9650744683        4.2899348015        4.2255642141
  X         4.1521168031       -1.6916031392       -1.1578744096
  X         4.3051809787        3.5224477089        4.4874520307
  X         0.0742174088       -2.7125029579        4.5344173607
  X        -4.3727744929        0.9843775297        4.3709832291
  X         4.1251219051        4.3869977640       -1.0037782211
  X         4.6922143074        3.1298799227        4.0651404455
  X         0.4461236985       -2.9427329597        4.1926544107
  X         0.2424067545        3.6396126385       -3.6607165951
  X        -1.7874737240        2.3106570520       -2.3806259496
  X         3.5780702710        4.9624255807       -0.7743620233
  X         3.9384265712       -0.2355514691       -4.9696931414
  X        -0.5029186388       -0.7161192803       -3.7080508293
  X        -4.3746363211        0.8445068285        3.8332563724
  X         3.4711859979       -0.7572207893       -4.9576429356
  X        -1.0284745781        4.5606300190        3.6004179458
  X         0.8686367988        3.9159999418       -3.7247571605
  X        -3.7915294924        1.1175381805        4.0335859314
  X        -0.0475644857       -2.5888074803        3.8796754838
  X        -1.7129613727        1.8672953042       -2.6968729606
  X         0.3271482053        3.8807811116       -4.2959828928
  X        -1.1851074897        2.2957170727       -2.6792258591
  X         3.8629698512       -1.0631841452       -1.1539392584
  X         3.4421165831        4.3247719829       -1.0275240148
  X        -0.0551371333       -3.8589956665       -0.5226129647
  X        -4.4697341306        1.4981164740        3.9481487110
  X         4.1167078208        3.3439440989        3.7459629673
  X         4.1399890216       -1.1914664674       -0.5485289561
  X         3.1803941597       -0.1944519587       -4.7131554358
  X         0.5956821656        3.3565600536       -3.9711996108
  X        -1.9699490354        4.2986744808        1.3293150419
  X         4.5145516924        1.9037269573       -1.5254675628
  X        -4.0869973793       -0.7183064256        1.4094229946
  X        -1.1708531923       -2.0351536643        2.1535167398
  X        -1.4247886073        1.8030039175       -2.0789674164
  X        -0.1106056478       -4.0340764093        0.1425943936
  X         3.5883687267       -1.4535766807       -0.8437680630
  X        -1.2208196557        2.1192180716        4.2010377727
  X         0.1648146370       -4.3993125189       -0.1412855399
  X        -4.2527527333       -0.1590760473        1.7538579433
  X        -1.2936523164        4.4796778348        0.9442887187
  X        -1.1944385855       -2.0914742122        1.4581436406
  X         4.2238244724        1.1315142952       -1.5022106418
  X        -1.3343359881        4.2202219477        1.5891293621
  X        -3.8933349995       -0.2043433924        1.0434411573
  X        -1.5116314437       -1.5080721662        1.8924955182
  X         0.5353033892       -3.8608165365        0.0448857206
  X        -1.5793720422        1.5574477868        4.0894550083
  X         4.2434590302        1.5660887353       -0.9766047802
  X        -4.5099172892       -0.4639278648        1.1800331473
  X         2.5462394134       -2.4015317043        0.2828395674
  X        -1.0478567220        1.4677100062        4.2023616972
  X        -1.4695442559        3.8602292108        1.1739321369
  X         2.5315887032       -2.4473422198        1.0607653455
  X        -0.8646806221       -1.6770145823        1.8929135285
  X         1.6757143848        0.8003499656       -4.6218706810
  X         2.2157214438       -2.8916555105        0.6145119499
  X         3.8919524379        1.6882588829       -1.3568373215
  X         1.1616601253        0.6976922099       -4.4171925062
  X         1.2291838950        1.3487452354       -4.5420932921
  X        -1.1672987403        1.6597741789        3.5650041497
  X         2.0086943658       -2.3985492437        0.6438577624
  X         1.1525753261        0.7673678412        5.0267758828
  X        -2.2447168888        1.1079626254        1.0206604566
  X         1.7902322429        3.2228371221       -0.8716447945
  X        -1.9856828368        1.6667261814        0.7295448863
  X        -1.8514323685        1.3532106605        1.3220707089
  X         1.1682434777        3.5654916261       -0.5747873020
  X         1.1790447887        2.9634567089       -0.8787819792
  X         1.2660517710       -0.4509690571        3.1603355497
  X        -1.6148204026        0.9841596500        0.8068986024
  X         3.5480921694        2.1289732728        1.5601128753
  X         0.5039410441        0.3495104602       -0.7690039052
  X         1.0332717689        0.0190239993        3.3068697598
  X         1.4093769806        2.9598763631       -0.3993634458
  X         3.4757438560        1.8475738715        0.9592968770
  X         1.6168983848        0.0667695541        2.9496637804
  X         3.0283065979        2.4177981271        1.2225036856
  X         0.0383354934        0.6526943375       -0.3494880248
  X         0.4410914744        0.3953314845       -0.0890148521
  X         0.9174053308       -0.2090545887        2.6398283000
  X         3.1123112250        1.8051735068        1.5133484643
  X         0.6240409048        0.9938851941       -0.3168280085
