     224
 Particles+Wannier centers. Iteration:1_1000
  O         1.6795445872       -0.4690038066        3.0955257848
  H         1.7820971655        0.3811867691        2.6772705948
  H         0.7027335393       -0.7852657562        2.7773616236
  O         1.1296999474       -0.1942197866       -4.2550380202
  H         1.4564451483       -0.2892000167        4.9034619103
  H         0.8225741846        0.7455618895       -4.1951876687
  O        -3.7639282224        4.1001456383        4.5847006380
  H        -4.5570703787        3.9573316935        4.0303580748
  H        -3.6757235030       -4.9943293135        4.6403796996
  O        -3.3326197782       -0.2907275915        1.2186769106
  H        -2.6586941997        0.4294305080        1.1360485471
  H        -3.9471424214        0.0231407819        1.8760964212
  O         0.0785067129        2.7817602619       -3.8132178838
  H         0.9436228489        3.1412543477       -4.0802212155
  H        -0.5271227705        3.0082041737       -4.5693957904
  O        -0.7492682491       -3.5743069835        4.6132086343
  H        -0.7688532907       -2.9457027574        3.8302476670
  H        -1.0042905775       -4.4709809220        4.3120726508
  O        -3.2913772534       -3.4180219290        2.0930335856
  H        -3.9101109152       -3.3876432002        2.8462003638
  H        -3.4078984200       -2.5833386656        1.5657322613
  O         0.1183488957        0.2332493760       -0.7514177055
  H         0.9760468987        0.6018243385       -1.0585204544
  H        -0.2400576569       -0.4387202555       -1.3699105869
  O        -1.0937836112        3.8694557291        4.0782029074
  H        -1.0125046758        4.0531983912        3.0875617890
  H        -2.0835234827        3.7013760204        4.1193202649
  O         2.1248963325       -3.4805291765        4.9990455871
  H         1.1734145109       -3.4396488498        4.9358767708
  H         2.3552480884       -2.7877761190       -4.4119974599
  O        -0.5860100793       -1.8169885161        2.4989074310
  H        -1.5283635358       -1.4174667556        2.3532743146
  H        -0.3730691291       -2.4093159054        1.7451605175
  O         3.1621116275       -3.0368151066        0.2613091732
  H         3.5789838718       -2.1530436819        0.1537302678
  H         3.5454233632       -3.2509199366        1.1808737873
  O        -2.3578933136        0.5591624709        4.1099441063
  H        -1.8917595518        0.9322069093        3.2941744531
  H        -1.7133902076        0.7995126167        4.8032175970
  O        -3.5268097631       -0.5729270848       -3.2050178585
  H        -4.4385002129       -0.1926656658       -3.2481660163
  H        -2.8657431052        0.1855912971       -3.1931675325
  O         4.8066667451        0.1577631074        3.3407463920
  H        -4.5242866503        0.1723968615        3.9130508624
  H         4.3505655671        1.0221422366        3.4508737603
  O        -3.2150324707       -3.0720461567       -4.7460258409
  H        -2.2462197632       -3.1610241618       -5.0131716142
  H        -3.3598615794       -2.1557910546       -4.3670206775
  O        -1.4030168233        1.7012667434        1.0355255667
  H        -1.4790572261        2.6866837738        1.0238789547
  H        -0.7164760625        1.4284584758        0.4667620513
  O         2.0144702337        2.3246393218        1.6680156737
  H         2.3709754067        2.0974156092        0.7388302771
  H         1.1108265016        2.5222312930        1.4295738395
  O        -4.5240396467        3.0330929466       -3.2309953309
  H        -3.7208933053        2.6092112308       -2.8762579250
  H        -4.2213434901        3.5140733011       -4.0635954277
  O         3.6482637876       -1.2612385848       -3.6419544929
  H         2.8734767778       -0.6552853428       -3.7177930874
  H         4.0673219469       -1.1620108012       -4.5174812324
  O         0.3529253266       -3.3878126296        0.2627230393
  H        -0.0754078378       -2.8600307337       -0.4547044407
  H         1.3328638540       -3.3587848440        0.2569715611
  O        -3.1347554904       -4.2257504588       -1.9871342895
  H        -3.4267391752       -3.8917191539       -2.8522680286
  H        -2.2765257769       -4.6326962246       -2.2478111259
  O         4.7875758772       -0.8866207918       -0.6995791935
  H        -4.5981386062       -0.5392965369       -0.1148359163
  H        -4.7958710043       -1.2547140243       -1.4328168084
  O        -1.9605547580        1.4700352825       -2.5268380151
  H        -1.4836276675        1.0940999670       -1.7063249678
  H        -1.1772715211        1.8782729418       -2.9698366315
  O        -0.5924410602       -1.9714232385       -2.2745566286
  H         0.0538376539       -1.7485023235       -2.9582716574
  H        -1.4835550327       -1.9335987697       -2.6936482687
  O         0.9763971335        3.8496452260       -1.0969689585
  H         1.8509017254        4.2360345777       -1.2990361117
  H         0.6059327305        3.7003294093       -1.9692463938
  O         4.0209040899        3.0825536299        3.5168925630
  H         3.5259918240        3.2218482833        4.3088242629
  H         3.3177620797        3.0303538029        2.7923842922
  O         3.8164052453        4.7115866241       -1.3758046871
  H         4.8418636622        4.4834047238       -1.4370010926
  H         3.7752818944       -4.6495281533       -0.7910982550
  O         4.2547755630       -2.6021550971        2.9847017298
  H         4.3057773128       -1.6467529678        3.0345696946
  H         3.5239495636       -2.9388171786        3.6301347653
  O         3.0116282332        1.4716147966       -0.9960988762
  H         3.7266714773        0.8622063695       -1.1610495929
  H         3.2373246834        2.3203979221       -1.4642773038
  O         2.5096400255        3.9309976414       -4.0541054799
  H         3.3726098068        3.8557809700       -3.5947282439
  H         2.3837186748        4.8624205683       -4.4011361333
  O        -1.6021612585        4.5183056831        1.2984597488
  H        -0.9127027644        5.0299651013        0.7872342810
  H        -2.3573575934       -4.9260935480        1.5199825588
  X        -3.2560377581       -3.2739373502       -4.4974769697
  X        -3.2864598444       -4.0557138885       -2.4429879871
  X        -3.3877495898       -3.1163290463       -5.0028169735
  X        -3.2781025658       -2.5988489636       -4.5665570613
  X        -2.7378025715       -3.0917747918       -4.8693693958
  X        -3.3223721702       -4.4524063292       -1.9009141163
  X        -2.6746991008       -4.4428633831       -2.1329906251
  X        -3.0665905014       -3.9838753415       -1.8180624652
  X        -3.7254154587        4.6155876354        4.6027212815
  X        -3.4869622489       -0.7667300871       -3.4714738689
  X        -3.8441612638        3.9970778704        4.8940032950
  X        -4.3636928517        3.2685726765       -3.6389249421
  X        -3.4877130796        3.9823445700        4.4378617496
  X        -1.0082013422       -3.4741903024        4.8040172404
  X        -3.5122108162       -0.7004737989       -2.9260147626
  X        -4.7161829461        2.8094290823       -3.3164369230
  X        -3.9974157294       -0.3558145963       -3.2339811540
  X        -4.1622725123        4.0377629121        4.2966663136
  X        -4.0948853025        2.8150412802       -3.0548032782
  X        -3.6139520401       -3.3935183724        2.4802826964
  X        -3.2116796607       -0.1885826855       -3.2151501778
  X         3.5279401282       -1.5508307640       -3.6476667975
  X        -4.6144652058        3.2437351360       -3.0230995594
  X        -0.4477166380       -3.5793593985        4.7315037464
  X        -0.8757596805       -4.0218688095        4.4392716639
  X        -3.3501339104       -3.6750853536        1.9112170204
  X        -1.0516092834       -1.9486047468       -2.5089903112
  X         4.3332761768        4.5996764140       -1.3886402533
  X         2.2299361402       -3.1241580085       -4.7426581479
  X        -3.0070863431       -3.3995016846        2.2036840809
  X         3.8488444865       -1.1595272096       -3.4299648820
  X        -3.3697678367       -2.9814475732        1.8249622770
  X         4.5406136513       -2.7203319974        3.0819261083
  X         3.8675966024       -1.1978909103       -4.1128643047
  X        -0.7618190158       -3.2811120731        4.2112017989
  X         2.1925826367       -3.7806885016       -4.9685170559
  X         1.6314919555       -3.4462619579        4.9672393410
  X         3.7416250789        4.8103925216       -1.6533517553
  X         2.9539814567        3.9083646289       -3.8125189883
  X        -0.5420928150       -2.2538808398       -2.1646893075
  X         3.8024544363       -5.0039615500       -1.0624446042
  X         2.2635248404       -3.3897270504        4.7222866224
  X        -0.2643212892       -1.8630090356       -2.6457765735
  X         3.8848389946       -2.7520918288        3.3207039344
  X        -1.5869576374        3.7748266027        4.0949105672
  X        -5.0355841969       -1.0851660859       -1.0842908619
  X         2.4625931923        4.4073935894       -4.2090516595
  X         3.2594997689       -0.9422025156       -3.6857753297
  X         4.1505004247       -2.6769955850        2.6883137120
  X        -2.1639193927        1.6941416659       -2.4491270628
  X         2.2609031799        3.8441971843       -3.8719632242
  X        -0.5789476959       -1.7128962108       -2.0684655059
  X         3.6578179343        4.4622053305       -1.2499481248
  X        -1.0645264338        4.1683374973        4.2046503464
  X         4.2654242152       -2.1054725913        3.0244597427
  X        -2.0683501127        1.2021655701       -2.7121489004
  X        -2.3432337871        0.2565531508        4.0832586305
  X         2.5496747418        3.7623416729       -4.3206868051
  X        -1.0393785062        3.9392711642        3.5814290391
  X         4.6285030116       -1.1204574971       -0.5450868473
  X        -1.9783173566        4.8422327144        1.3903636778
  X        -1.5662840785        1.6724188026       -2.7588240723
  X         3.2982858769       -3.2399442115        0.0489891145
  X        -4.9421981925       -0.7127317075       -0.4014450387
  X        -4.8939067465        0.1783201471        3.6572379591
  X        -2.6251622968        0.7121222094        4.1523231448
  X        -0.2309903491        2.9003242740       -4.1940311569
  X         4.2437108321        3.3261882506        3.4869625481
  X        -2.0144067134        0.6946882672        4.4808536686
  X        -1.7279414807        1.2812881728       -2.1063992608
  X         3.3510759154       -3.1530551705        0.7294499989
  X        -0.9226796018        3.6169545600        4.1977558942
  X         4.6376140086       -0.6322417436       -0.8158307754
  X         0.5085795693        2.9581412750       -3.9550216068
  X        -1.4618906035        4.4549258331        1.5945773422
  X         3.3617146003       -2.5791479110        0.2074778057
  X        -0.0195957413        2.9180085756       -3.5465865179
  X        -1.2609627126        4.7881919882        1.0348704678
  X         3.7505513799        3.1593633986        3.9313206630
  X         4.6231253372       -0.0895422720        3.4252792524
  X        -3.4983553380       -0.3099507051        0.9377418024
  X        -0.6170328637       -2.0146784393        2.7695843678
  X         0.1586383381       -3.1085741905       -0.1204901626
  X         0.8871208578       -0.3875942190       -4.2034690652
  X         4.5759439833        0.6004579926        3.4122670241
  X         4.1207732456        2.7817603845        3.5382125082
  X        -2.1133971059        0.7568503442        3.6867298852
  X         0.0942185729        2.4532119817       -3.8108926629
  X         2.8284218548       -3.0196495803        0.2875103055
  X        -3.1934281545       -0.5546887892        1.3363441644
  X        -1.6975797687        4.2562115558        1.1312918719
  X         1.3965614456       -0.2150685401       -4.0703247442
  X         0.2570122119       -3.2310423835        0.5464410271
  X        -3.6478068199       -0.1159635919        1.5655630743
  X         0.7854761078        3.7771494509       -1.5669603696
  X         0.2522110537       -3.6874404720        0.2329192941
  X        -1.0639242164       -1.6178507129        2.4070053555
  X         1.2849490293       -0.2325312512       -4.7261932771
  X         4.9345522916        0.1585450513        3.0497603084
  X        -0.4974384079       -2.1075567476        2.1093326192
  X         0.8446964423       -3.3601141667        0.2331912513
  X        -2.9967215177        0.0732410444        1.1855422490
  X         0.9700510559        0.2974117638       -4.2346768393
  X         1.4316850204        4.0514624127       -1.2107232150
  X         3.6688543661        3.0804290040        3.1564258650
  X         0.8066722245        4.0575284350       -0.9560903557
  X        -0.3540631293       -1.5606174485        2.5139383136
  X         3.1399509566        1.9070136278       -1.2481190901
  X         1.0260864411        3.5699192708       -0.9782947890
  X         3.3947993850        1.1655735091       -1.0889242858
  X        -0.0455819867       -0.1014236330       -1.0804752190
  X         2.7476276637        1.3532829165       -1.1258120680
  X         1.8824937628       -0.6571785403        2.9817558092
  X        -1.4346092155        2.1993702474        1.0116828722
  X        -1.6811869793        1.5597838379        0.9366638494
  X        -0.0962772354        0.4859358562       -0.7652836068
  X         1.6571445917       -0.4122808353        3.4367858113
  X        -1.3172813055        1.6298417933        1.3254141627
  X         1.2090611630       -0.6027452254        2.9396405071
  X         0.5613643984        0.4063120579       -0.9334408140
  X         3.0045808999        1.5446816255       -0.6760907423
  X         0.1584848690        0.1080516947       -0.4832350287
  X        -1.0363206628        1.5794273080        0.7339827718
  X         1.7280256469       -0.0120676546        2.8751510424
  X         2.1698228385        2.5846440904        1.7941429150
  X         2.1931923370        2.2177119054        1.2047642393
  X         1.5301437403        2.4383587389        1.5470637620
  X         2.0032645281        2.0514185736        1.8295390202
