     224
 Particles+Wannier centers. Iteration:1_1200
  O         1.3698551140       -0.7022871614        3.0793238658
  H         1.5161218254        0.1984877528        2.9064659436
  H         0.4479288712       -0.7995446056        2.8968053505
  O         1.2489776404       -0.3564484412       -4.2620988106
  H         1.1949382776       -0.5819948382        4.8439481745
  H         0.8823050525        0.5652052995       -4.2505576325
  O        -3.6533816773        4.5533201073        4.6276587675
  H        -4.4224748307        4.4495137540        3.9985843350
  H        -3.7222388013       -4.6092291759        4.9196604122
  O        -3.5227936334       -0.4272738905        1.2727391600
  H        -2.9838530209        0.2708631520        0.8479345503
  H        -3.8117800948       -0.0905774393        2.1772929085
  O         0.4478079313        2.3972604097       -4.4721528402
  H         1.2504606049        2.8456808261       -4.0950940096
  H        -0.0787043100        3.0431881720        5.0146791840
  O        -0.1776083066       -3.2139995865        4.6287833772
  H        -0.5963543180       -2.8731435662        3.8281883944
  H        -0.5138108583       -4.0930641106        4.6862351923
  O        -3.6000228503       -3.6506841216        2.2468510402
  H        -4.4317958256       -3.2060555873        2.5882669839
  H        -3.3902082672       -3.0415060542        1.4981894693
  O         0.1805288248        0.1571918580       -0.7106516515
  H         1.1122775868        0.4331202934       -0.7905932640
  H         0.0967331877       -0.5797739076       -1.3622437064
  O        -1.2471440124        3.6621817228        3.8300829799
  H        -1.0347179866        3.9198278479        2.8712353400
  H        -2.1478305713        3.9441304887        4.0196161466
  O         2.6670473485       -3.3373244780       -4.9366145726
  H         1.6904303750       -3.2773304052        4.9573473471
  H         2.9881815350       -2.4706428183       -4.5611906413
  O        -1.0139511219       -1.6603581852        2.3983131544
  H        -1.9087784407       -1.1880989486        2.2704989212
  H        -0.9944231852       -2.2409576327        1.5912384103
  O         2.6410509838       -3.1549037401        0.4997113945
  H         3.1513283733       -2.3564718758        0.2754273007
  H         2.9604882969       -3.3321595523        1.3916205013
  O        -1.9761538455        0.7198532743        3.7516278205
  H        -1.6353579116        1.3139758583        3.0160618412
  H        -1.6415857774        1.1211793084        4.5598327991
  O        -3.4117704399       -0.3094211271       -3.5827352104
  H        -4.3589392001       -0.0488575263       -3.4136958000
  H        -2.9218488363        0.0595842620       -2.8526181432
  O        -4.8187835358        0.5115952450        3.7907444542
  H        -3.8778535505        0.5343338315        4.0691606861
  H         4.9812459936        1.4264295013        3.5489025414
  O        -3.5110106189       -2.8639301152       -4.5847446133
  H        -2.7260364093       -2.3960607727       -4.8546803679
  H        -4.0120390393       -2.0951282089       -4.1963453940
  O        -1.2680081346        1.6197751228        1.3110855002
  H        -1.3952823227        2.5379437407        1.0174010252
  H        -0.6525796121        1.1603511263        0.7741884914
  O         2.2143862603        2.7014752874        1.3715525511
  H         2.5785155620        1.9353013525        0.8763504192
  H         1.8076062998        3.1411664060        0.6125226522
  O        -4.3906188408        3.1419733602       -2.6345648703
  H        -3.6499573946        2.5352894242       -2.4794592822
  H        -4.1206396991        3.5643517317       -3.4586909382
  O         3.9199895308       -0.7647947169       -4.0020254924
  H         2.9512385253       -0.6054668281       -3.9376426631
  H         4.2234846488       -0.3232878683       -4.8198259417
  O        -0.2953514404       -3.4022220747        0.0832967498
  H        -0.2426357137       -3.4679704228       -0.9118356458
  H         0.6483527431       -3.4884650586        0.3623148234
  O        -2.5081108923       -3.7294697614       -2.0113030767
  H        -2.9998976482       -3.5119312031       -2.8578667664
  H        -2.6717152100       -4.6578803078       -1.8236283184
  O         4.6829855265       -0.8768090987       -0.4797116379
  H        -4.7878309823       -0.7454554572        0.2611458701
  H         4.9209577238       -1.6069007414       -1.0687768967
  O        -1.6863813844        1.7204289153       -2.1664169405
  H        -1.3520382384        1.4486649815       -1.3081766242
  H        -0.9255162229        1.8243317005       -2.7748188670
  O        -0.4760122444       -1.8944666720       -2.5421941311
  H         0.0789134636       -1.8427476814       -3.3607273858
  H        -1.1448756938       -2.6454256211       -2.5913691271
  O         0.7145007184        4.0130130428       -1.3223256211
  H         1.5439157997        4.4434893873       -1.5766846756
  H         0.3580909915        3.5370774725       -2.0978805932
  O         4.0902413201        2.9696024743        3.5087615721
  H         3.8066491738        3.3602471275        4.3409785646
  H         3.3848797985        3.1434518087        2.8600807997
  O         3.7833750996       -4.9401694635       -1.4704336636
  H         4.7440964482        4.8649200484       -1.1342144211
  H         3.5047565967       -4.2067052353       -0.9248897474
  O         4.0438630530       -2.3838077482        2.9127160624
  H         3.9363824606       -1.4573744100        2.8261195262
  H         3.6454069848       -2.5597444847        3.8041230207
  O         3.0554449940        1.1003390160       -0.9372762432
  H         3.7284574036        0.4000065952       -0.7320472165
  H         3.4008358978        1.6884542982       -1.6556866947
  O         3.1811397539        4.2961282014       -4.3438560427
  H         3.2693903914        4.1812706408       -3.3664940709
  H         3.0796717832       -4.8923182487       -4.4637295418
  O        -1.6613869279        4.4446032032        1.0273437808
  H        -1.1419563015       -5.0427745051        0.4829329927
  H        -2.3557781806        4.9871442797        1.3941976629
  X        -3.4201417370       -3.0386754499       -4.3223194422
  X        -3.6520856336       -3.0115647490       -4.8255434291
  X        -3.7808657663       -2.4792163141       -4.4007524318
  X        -2.7660016325       -3.6391137077       -2.4401148973
  X        -3.0941479893       -2.6190213851       -4.7330575061
  X        -3.6896601151        5.0348566678        4.7661408841
  X        -2.6379885421       -3.5758757760       -1.7874913246
  X        -2.5956227945       -4.2306608948       -1.9298669816
  X        -3.7211055959        4.3770105371        4.8822278980
  X        -2.1909412245       -3.6851918206       -2.0810577131
  X        -3.3644021183        4.5006697187        4.4633754910
  X        -4.0513496490        4.5097171139        4.2993342666
  X        -4.2425384192        3.3597524271       -3.0714725560
  X        -3.4163795976       -0.6298029861       -3.5650736289
  X        -3.8989288770       -0.1622286350       -3.4830353150
  X        -3.3233686556       -0.1693204308       -3.8366346886
  X        -4.0030566954        2.8185328341       -2.5599462154
  X        -3.3802916827       -3.6045775249        2.4470544478
  X         2.7336265345       -3.5897275565       -4.7383257363
  X         3.8196267537       -4.8477365311       -1.7620292441
  X        -4.6478973288        2.9838739971       -2.6845329924
  X         3.4391928612        4.1776201488       -4.5003955053
  X        -3.1637996526       -0.1198794727       -3.1867639748
  X        -4.0223736666       -3.4351838765        2.4139199296
  X        -3.6590397108       -3.9355211316        2.1243795437
  X        -0.3587681505       -3.6896038784        4.6538619771
  X        -0.8081262288       -2.2800402276       -2.5887730310
  X         3.9360932221       -1.0830978399       -4.0665517073
  X        -4.3709341968        3.3595314391       -2.4135613159
  X         2.8055524864       -2.8909375777       -4.7327945250
  X         2.8072521341       -3.3276954356        4.8785681010
  X        -3.4943347235       -3.3265724712        1.8411581601
  X         3.1392762297        4.7683800453       -4.3945880477
  X         4.2718892399        5.0251176142       -1.2830735698
  X         3.2307243297        4.2400494941       -3.8325796932
  X        -0.2951205005       -3.0613259442        4.8642891661
  X         2.1731380692       -3.2906381120       -5.0236864358
  X         3.6547909093       -4.5496826105       -1.1846115769
  X         0.1506688150       -3.2334516737        4.5942888737
  X         4.0818777544       -0.6451879108       -3.7581716039
  X         4.0587661486       -0.5318539083       -4.4288892298
  X        -0.2832667024       -1.9640124128       -2.3048638822
  X        -0.2016605278       -1.8943528429       -2.9739592949
  X         3.8503402971       -2.4614426758        3.3698921884
  X         2.9032612867        4.1732196291       -4.4092287978
  X        -0.3894149746       -3.0506426600        4.2107225730
  X         3.5862043392        4.9242674738       -1.4099370297
  X        -1.7040162842        3.8104980073        3.9116749667
  X         3.4374360600       -0.6704571847       -3.9733793262
  X         4.3732410631       -2.4606494191        2.9138666799
  X         4.8332695828       -1.2599969037       -0.7853394308
  X        -0.6248401017       -1.6302110717       -2.5210450287
  X        -4.3430426180        0.5419881552        3.9418425568
  X         3.8541283272       -2.5237416530        2.6979328679
  X        -1.8298091552        1.9996606412       -2.1451409383
  X        -2.0323133035        4.7331194017        1.2070552465
  X        -1.0376974607        3.8111483032        4.0382857333
  X        -0.2592640249       -3.4297020383       -0.4308846061
  X        -5.0077083736        0.3883470327        4.0263587329
  X         3.9293945524        3.1578505857        3.9348781162
  X        -4.7970406769        0.3515797328        3.5073327238
  X         3.9894454732       -1.8833427215        2.8681532021
  X        -1.2378882968        3.3579522345        3.8448667808
  X        -1.8509495247        1.4777638671       -2.2720004410
  X         4.6484524763       -0.5979967857       -0.6408865292
  X         4.4222928131       -0.9764251482       -0.3501331535
  X        -1.4053268005        4.7569074059        0.7438049614
  X        -2.3053205895        0.7440129623        3.7648468531
  X        -1.2736578461        1.7716677088       -2.4680281340
  X        -0.4478393667       -3.6805049541        0.1788799863
  X        -1.4696694028       -1.4256067573        2.3349427765
  X        -3.3252020750       -0.6647293905        1.3299041425
  X        -1.4804222583        4.3716077958        1.2809722816
  X        -4.9453891957        0.9737066408        3.6794547466
  X         1.0544613697       -0.5531790366       -4.1038500030
  X         2.9007926806       -2.7291338811        0.3894389729
  X        -0.4066937639       -3.1181045241        0.1782617542
  X         4.3344548514        3.1459938053        3.4277784794
  X         1.1520621605        4.2310847516       -1.4809311708
  X        -1.1453190110        3.8012037880        3.3439447052
  X        -1.7932090628        0.9385260991        4.1836986055
  X         5.0123194585       -0.8339123681       -0.1224873033
  X         0.2162543744        2.7250517649       -4.7694418786
  X        -3.8034701253       -0.4869220494        1.0847786929
  X         4.1432437907        2.6415666957        3.5353162933
  X         1.5795373890       -0.3478545188       -4.1854529718
  X        -1.8485402678        0.4420268312        3.7204884113
  X         2.8073424020       -3.2492613268        0.9644910083
  X        -3.6600648986       -0.2406140006        1.7217355661
  X        -1.4993923798        1.5903844730       -1.7172074908
  X        -1.0313892628       -1.8590741969        2.6599943018
  X         0.1931793752       -3.4498043394        0.2207525393
  X         0.5191486789        4.2335824798       -1.2707299447
  X        -1.0058794376       -1.9578799261        1.9815441911
  X        -1.7777589531        4.2011036445        0.8613170576
  X         2.7595828601       -3.3835422953        0.3014418036
  X         0.8645529151        2.6474044392       -4.2844605015
  X         1.2176595576       -0.4626251994       -4.7538166493
  X         0.2593727919        2.3512870806       -4.2154984456
  X         0.5477102371        3.7621695584       -1.7485464645
  X        -3.2540568722       -0.0526146993        1.0593571577
  X         1.0640170691        0.1161562325       -4.2541847090
  X         2.3257959298       -3.0981915899        0.5054059629
  X         3.7169920961        3.0635066851        3.1855290304
  X         0.5440423761        2.1390005999       -4.6211344189
  X        -1.8057100499        1.0259522059        3.3945278272
  X        -0.7727812196       -1.4425032716        2.3822813504
  X         0.7874337377        3.8041493701       -1.1068163004
  X         3.2486979415        1.4019686078       -1.3192659018
  X         3.3987204244        0.7647681337       -0.8547813200
  X         1.3882881017       -0.7182684102        3.4164859774
  X         0.1443944904       -0.2159034909       -1.0385700686
  X         3.0312692231        1.2808656182       -0.6733180264
  X        -1.5414452654        1.4807046901        1.2378324699
  X         0.8970354625       -0.7413701400        2.9794187315
  X         1.5410634913       -0.8736080779        2.9016571511
  X        -0.0038162506        0.4058334609       -0.8072941952
  X        -1.3086127097        2.0898936257        1.1450713368
  X         0.6668487770        0.2971184749       -0.7586612676
  X         2.7867522735        0.9605707429       -1.0402816877
  X        -1.1909147459        1.6150700474        1.6259568093
  X         1.4455101720       -0.2097479940        2.9795204228
  X         0.1403649349        0.0563194625       -0.4203782157
  X         2.4564413937        2.8747225629        1.4896570601
  X        -0.9295610970        1.4022987015        1.0284138469
  X         2.0040270743        2.9417060249        0.9726909148
  X         1.9897884994        2.6008152607        1.5482145745
  X         2.4054327257        2.2984267394        1.1249697461
