     224
 Particles+Wannier centers. Iteration:1_900
  O         1.7957563706       -0.0830908588        3.3434659406
  H         1.8915684715        0.7437323624        2.8651718588
  H         1.0478535251       -0.5095420849        2.9928448978
  O         1.0725219210       -0.1578522334       -4.2411010936
  H         1.3833089362        0.1123557364        4.9126242018
  H         0.7904465917        0.6392081064       -3.7316474742
  O        -3.8901098341        4.2250582153        4.4071290044
  H        -4.6222794100        3.7978648306        3.9355279755
  H        -4.0396263625       -4.8988508650        4.5558602740
  O        -3.3308811317       -0.5366815561        1.0198014805
  H        -2.7678937700        0.2750014808        1.1186808313
  H        -3.8812286823       -0.5061861027        1.8500534515
  O         0.0132119565        2.8664343858       -3.6790872144
  H         0.9960169449        2.9594472691       -3.6082230236
  H        -0.0613951430        3.2416631411       -4.6332096665
  O        -0.4856928885       -3.6038957220        4.4834519241
  H        -0.6127447169       -3.0946147719        3.6473616368
  H        -0.7224799900       -4.5514330564        4.2618446857
  O        -3.3216199987       -3.3156594349        1.9043967831
  H        -4.2434893164       -3.3355715432        2.2532840972
  H        -3.2434878882       -2.6631087681        1.1539249826
  O         0.1368041717        0.7089813554       -0.8735580531
  H         1.0071716918        1.1925135139       -0.9618387829
  H         0.2416580985       -0.2191727286       -1.1515938292
  O        -1.2406679446        3.9410520430        4.0799514000
  H        -1.1587021859        3.9529949418        3.1196871150
  H        -2.2085742752        4.0905648097        4.1977783829
  O         1.9842280546       -3.7041370407       -5.0461310803
  H         0.9980819383       -3.4504403350        4.8524045786
  H         2.4805992353       -2.9766906037       -4.6003228150
  O        -0.3623722799       -1.7269690581        2.2203065066
  H        -1.2901285967       -1.3036936901        2.0459537390
  H         0.0355310223       -2.0963199958        1.3509352942
  O         3.4899098784       -3.0919157382        0.1220304762
  H         3.8129921897       -2.2589013051       -0.2924337858
  H         3.5896082134       -2.9036686442        1.0951235437
  O        -2.5688651652        0.7036435741        4.2171632875
  H        -1.9716818925        1.1886743155        3.5973425110
  H        -2.1088253772       -0.0906408948        4.5260547375
  O        -3.5560023742       -0.7911114271       -3.2231738786
  H        -4.4468668843       -0.4511616203       -3.4995556502
  H        -2.9233377333       -0.0038960865       -3.1635172131
  O         4.9498252191        0.1938832360        3.3308224130
  H        -4.3389106292        0.3358142483        3.8372020475
  H         4.4312554302        1.0266088116        3.4710258564
  O        -3.2817811626       -3.2677146683       -4.6885731869
  H        -2.3955783252       -3.2817576019        5.0114689209
  H        -3.3812200806       -2.3123234032       -4.3921594301
  O        -1.2791432656        1.5806792532        1.2798140914
  H        -1.4229855706        2.3970733219        0.8170695002
  H        -0.5823059726        1.1262236071        0.5716087716
  O         1.8313063576        1.9617911804        1.7302681125
  H         2.2937349757        1.7888770629        0.8441078072
  H         1.0133489992        2.4497623161        1.5979359480
  O        -4.8066898039        2.7792217670       -3.0407824353
  H        -4.0009408298        2.3676172573       -2.7074699207
  H        -4.6269851527        3.1398957704       -3.9743750304
  O         3.4516067004       -1.4689229750       -3.7236011339
  H         2.7112168857       -0.8533333189       -3.7576490415
  H         3.9841096862       -1.2591565761       -4.5059533892
  O         0.6546990692       -3.2022755361        0.2858888235
  H         0.5960256718       -3.3826870408       -0.6888595219
  H         1.6145458977       -3.2030814855        0.5300727921
  O        -3.5246277070       -4.3714047558       -2.0010930840
  H        -3.2324397302       -4.0457841638       -2.8593865682
  H        -2.9071776231        4.9899542701       -1.7795127750
  O         4.7257932267       -0.8548545020       -0.9087123314
  H        -4.4898925042       -0.6756606019       -0.4135746482
  H        -4.9839447948       -1.0745684454       -1.7820346506
  O        -1.9914205381        1.4078007048       -2.6429151098
  H        -1.3474273331        1.1091712184       -1.9243071761
  H        -1.4140274111        1.6663283836       -3.3584203642
  O        -0.4985206454       -1.8606673624       -2.0754527371
  H        -0.3934264491       -1.3467627618       -2.8720600397
  H        -1.4466140588       -2.0224098622       -1.9718658590
  O         0.9027721839        3.8792605484       -0.7013728824
  H         1.8415901661        4.1733319624       -0.7581232153
  H         0.6985312910        4.0086251394       -1.6298559551
  O         3.8198181528        2.8719190012        3.5951931017
  H         3.3603341887        3.2108731273        4.4217767277
  H         3.1198356171        2.9373262863        2.8598305499
  O         3.6945104008        4.4829000638       -1.2933353706
  H         4.5082137042        4.2474352232       -1.8860837888
  H         4.0277338773       -4.9297722692       -0.7164096551
  O         3.9195179760       -2.7336743650        3.0971331791
  H         3.6980213292       -1.7957605920        3.1634754336
  H         3.1549426216       -3.1913978278        3.6142195556
  O         2.8197966288        1.3910043013       -0.9467501928
  H         3.4803218682        0.7020562690       -0.9610505096
  H         3.3945866415        2.1666665747       -1.1243367131
  O         2.4610711125        3.9774788690       -4.2695684719
  H         2.7115011003        4.0462131598       -3.3348775377
  H         2.3310168331        4.9492836677       -4.5690980119
  O        -1.3300838486        4.5568675708        1.3083536222
  H        -0.5891431262        4.9035804053        0.8022970081
  H        -1.9240682611       -4.7718112105        1.4723499181
  X        -3.2515675620       -3.4278806427       -4.4119932744
  X        -3.4994848507       -3.3558207647       -4.9032132707
  X        -3.3329228521       -2.7756185315       -4.5586974507
  X        -3.3589973588       -4.2149269341       -2.4510818733
  X        -2.8212440441       -3.2646924041       -4.8998749261
  X        -3.8036411765       -4.4930446288       -2.0355750677
  X        -3.4653577687       -4.1506139532       -1.7990806983
  X        -3.1873377070       -4.7675824565       -1.8970114619
  X        -3.9906119258        4.7220731924        4.4581909395
  X        -3.4639265736       -1.0043273805       -3.4607747633
  X        -3.9212194874        4.1035016511        4.6916157190
  X        -3.6017508839       -0.8919733255       -2.9327893195
  X        -3.5893689101        4.1860080508        4.2583106879
  X        -4.0202041462       -0.5947457398       -3.3705030648
  X        -4.6967331981        2.9516889493       -3.5188804425
  X        -3.2565523791       -0.3963300490       -3.2103519899
  X        -4.2656709550        4.0307651023        4.1445454889
  X        -0.5528625661       -3.3570353292        4.0482005437
  X         3.3315792435       -1.7571584494       -3.7931984755
  X        -4.8688859596        3.0345583381       -2.8551264900
  X        -3.8104559307       -3.3164021662        2.0599270195
  X        -4.3706367962        2.5704263870       -2.8811929411
  X         2.2174405356       -3.3276753336       -4.8032481969
  X        -3.1576739539       -3.1946711555        2.1262044281
  X        -3.2411833921       -3.6087695966        1.7948143089
  X         3.7334626498       -1.3400979885       -4.1426800326
  X        -0.7136639078       -3.5038699388        4.6797420608
  X        -5.0132264263        2.5576325124       -3.0643622440
  X         3.6273486621       -1.4178754375       -3.4745699297
  X        -0.5906824041       -4.0685816410        4.3607495803
  X        -3.3081950954       -2.9793080802        1.5088018893
  X         4.0982590163        4.3719572381       -1.5854655533
  X         2.0192603815       -4.0115381110       -4.8742415731
  X        -1.0074248714       -1.9333211530       -2.0334428341
  X         2.1247025209       -3.6955274596        4.7607983481
  X         4.1938363631       -2.7900374943        3.2302782545
  X        -1.7217651855        4.0067340319        4.1375895081
  X         2.4015302939        4.4379425405       -4.3995861987
  X        -0.1460633947       -3.5737291848        4.5742751618
  X         1.5267663947       -3.5674776336        4.9874174669
  X         4.9202784487       -0.9693866849       -1.3693159842
  X         3.0824367140       -1.1419744807       -3.7480754967
  X        -0.3641337669       -2.1319975849       -2.1115108596
  X         3.8719646355        4.8375684803       -0.9933423690
  X         3.5340523278       -2.9593860796        3.3548944738
  X         2.5995583241        4.0181486613       -3.7748594575
  X         3.4628823872        4.5959365943       -1.4729810947
  X        -2.1658909155        1.1214212267       -2.7433291743
  X        -0.4633592627       -1.5922677463       -2.5046984947
  X         2.1734301196        3.8325024741       -4.2592813844
  X         3.8772448455       -2.8021043777        2.7796386296
  X        -1.0995833030        4.2364712018        4.1643274006
  X        -2.5880894336        0.8709153497        4.4581552267
  X        -2.1540620556        1.6522084700       -2.5514018489
  X         3.6700338974       -3.3415501961        0.0438990761
  X        -1.1314117977        3.6728278797        4.2159060451
  X         4.5817368231       -1.1259379668       -0.7818788715
  X        -1.6897662590        1.5314626802       -3.0151111794
  X        -2.3092328563        0.2779123212        4.3630157129
  X        -4.9328633103       -0.7667065823       -0.6608159049
  X         3.7985088032       -2.2411395905        3.1428806240
  X         2.7085617964        3.8341481255       -4.4476121273
  X        -0.4119450791       -1.6611800513       -1.8396079507
  X        -2.8380784019        0.6090980859        4.0645558768
  X         3.6282717980        4.2236703861       -1.1192541652
  X        -0.1073721411        3.0692698798       -3.4854951585
  X         4.7924285979       -0.0449283300        3.4638438943
  X         3.6483823089       -2.6687508523       -0.0833598606
  X         3.1641536632       -3.1060602558        0.0905474783
  X        -1.6278895558        4.9610908723        1.3818501084
  X        -1.2016038260        3.9313147893        3.5840576393
  X        -1.6662029393        1.2606632234       -2.2820448533
  X         4.5648476822       -0.5703142958       -0.9360014044
  X        -0.0755326721        2.5442278173       -3.6822231607
  X        -3.1396229267       -0.7885700982        1.0474498634
  X         3.5791057122        3.0386176646        4.0050507780
  X        -0.0209886311        3.0505928705       -4.1612880146
  X         3.5504655327       -2.9882860659        0.6234756090
  X        -4.7341549673        0.2744435088        3.6056494627
  X        -2.2479811452        0.9359060150        3.8907975158
  X        -3.6129934857       -0.5176386119        1.4453038695
  X         5.0469123604        0.1712320429        3.0266364065
  X        -1.4771503404        4.3478122081        1.1316644795
  X         0.8215215586       -0.3425521501       -4.2563479387
  X         0.5200687274        2.8940362856       -3.6294898062
  X        -3.5287859512       -0.5091338881        0.7546881164
  X        -0.9434773311        4.7490330657        1.0480593617
  X         0.6402465597       -3.2830032458       -0.2239922729
  X         4.0796858394        3.0699740468        3.5404629728
  X         1.3445631235       -0.2674369625       -4.0921229546
  X         3.8704494681        2.5509021709        3.6287415503
  X         4.6928518395        0.6225793266        3.4017650792
  X        -0.4179032825       -1.9827844691        2.4179524447
  X        -3.0504334872       -0.1210679759        1.0710608194
  X        -1.2202595228        4.4665502471        1.6025819894
  X         0.5277794657       -2.8932288326        0.3701838509
  X         0.9297184408        0.2755815448       -3.9846323312
  X         0.7919463817        3.9501601445       -1.1998910209
  X         0.5272760938       -3.4477502039        0.4191259486
  X         1.2039342702       -0.0005543108       -4.6858702911
  X         1.1452684149       -3.2064954174        0.3979639479
  X        -0.8391252154       -1.5121257985        2.1096758596
  X        -0.1913912077       -1.8897030313        1.7850960203
  X         3.4642758671        2.9257201992        3.2253715995
  X         1.3873381808        4.0322402190       -0.7218999178
  X         0.7355492792        4.0827002074       -0.5329538455
  X        -0.1707819295       -1.4874468073        2.3277378231
  X         3.1134553856        1.7950810957       -1.0460811266
  X         0.9033245712        3.5741788517       -0.6538942881
  X         3.1540338449        1.0296158586       -0.9602713794
  X         2.0388012756       -0.2588978423        3.2895406398
  X         0.2155938425        0.2310221350       -1.0071408386
  X         2.5903411834        1.3558785144       -1.1626238615
  X        -1.3573663513        2.0150564418        1.0331140343
  X        -0.0810458592        0.8299405186       -1.0877257466
  X         1.7164614552       -0.0107923882        3.6807644089
  X        -1.5593038836        1.4044143979        1.2597854264
  X         1.3957687985       -0.2953054809        3.1496008709
  X        -1.1451684769        1.6413597232        1.5565562776
  X         0.0405829504        0.7255760476       -0.5393947761
  X         2.7279984747        1.4260576668       -0.6287620557
  X         0.5751608237        0.9381672514       -0.9280713282
  X         1.8343067506        0.3359925453        3.1023855998
  X        -0.9434886509        1.3638358529        0.9590802745
  X         2.0250462274        2.1633668800        1.8904362285
  X         2.0413439627        1.8828178663        1.2781214430
  X         1.3993091191        2.2126079743        1.6407733301
  X         1.7691860643        1.6759546732        1.8797278081
