     224
 Particles+Wannier centers. Iteration:1_700
  O         1.8044093278       -0.3105855195        3.7766921493
  H         2.0615015245        0.6030491153        3.3243963808
  H         1.1857556766       -0.7025818654        3.2218459832
  O         0.6029738416        0.0949394955       -3.6310076977
  H         0.8806299150       -0.1412397071       -4.5515462702
  H         0.4568166594        1.0707631356       -3.6777196224
  O        -4.2450519111        4.1783585583        4.6987135444
  H         4.9783603298        4.0344355053        4.2276541075
  H        -4.3424686003       -5.0368415919       -4.9544717115
  O        -3.4391084400       -0.3532628932        0.9489763653
  H        -2.9269599950        0.4833805208        1.2017116308
  H        -4.1841479987       -0.1866731024        1.5728884269
  O         0.3303238727        2.7790483417       -3.8307396175
  H         1.1533881176        3.3179706669       -3.9024466092
  H        -0.3243448011        3.1126414044       -4.4767075803
  O        -0.7858269547       -3.0789876064        4.3273735634
  H        -0.7552029441       -2.4334525524        3.5693580664
  H        -1.0720061892       -3.9790601919        3.9175446763
  O        -3.2954732826       -3.4711857319        1.4957042603
  H        -3.6324576349       -3.5132419739        2.4102695883
  H        -3.5126337199       -2.5221607829        1.2652428405
  O        -0.1633223508        1.1389703995       -0.8517381388
  H         0.7564884156        0.8377273416       -1.0465630000
  H        -0.5655880020        0.2548114489       -0.6904577572
  O        -1.5585825257        4.1272775468        4.0790032979
  H        -1.4872748465        3.9971300383        3.1010284422
  H        -2.5499579921        4.1155712336        4.3347497429
  O         1.9597424572       -3.6860630333        4.8535207258
  H         0.9930001031       -3.4224066536        4.6966219833
  H         2.3266981683       -2.8518672373       -4.7942617217
  O        -0.3465635550       -1.8015083595        1.8108500011
  H        -1.2349485590       -1.3735676708        1.5268508984
  H         0.1874182867       -2.0205034770        0.9920547719
  O         3.7946507410       -3.5297112871        0.0460849408
  H         4.3558054599       -3.0584403458       -0.6022252730
  H         4.0930793000       -3.2576517857        0.9743220094
  O        -1.9734249873        0.8900835203        4.5500515921
  H        -1.7620098049        1.7063694540        4.0701659318
  H        -1.3849214590        0.2305171522        4.1748304966
  O        -3.6820517096       -1.0338884903       -3.7426746433
  H        -4.1634287130       -0.3040535493       -4.1859844487
  H        -3.0070390670       -0.5143015583       -3.2047968456
  O        -4.8545391736        0.1568235684        3.2148617633
  H        -3.9411831736        0.4097208108        3.4818720044
  H         4.7252102710        1.0384508949        3.4990660435
  O        -3.1905829828       -3.6106438057       -4.3234902940
  H        -2.4843601499       -3.6149823161       -4.9971852241
  H        -3.2896270633       -2.6344075943       -4.1765137762
  O        -1.5515317585        1.7233524188        1.6327017422
  H        -1.5907439294        2.6874136264        1.3256986845
  H        -0.7377677657        1.3551868135        1.2854166150
  O         2.1030386108        2.2461835033        1.7195742366
  H         2.4301890511        1.6119516899        1.0853105201
  H         1.8454274084        2.9968828411        1.1433292810
  O        -4.9351182813        2.2825230884       -2.7461978241
  H        -3.9910405592        2.0171222896       -2.6598919144
  H        -4.8992691018        3.0054740707       -3.4086388862
  O         3.3333984338       -1.3638397934       -3.9476096544
  H         2.6207876327       -0.8678555038       -3.4274024288
  H         3.5150569069       -0.7822016320       -4.7133102838
  O         1.1745386507       -2.9095087442       -0.0239118427
  H         0.9898853164       -2.5182152010       -0.9291437477
  H         2.1736174137       -2.9378738080       -0.0555547493
  O        -4.1453501649       -4.3452446343       -1.6790154104
  H        -3.5855125287       -3.9868987638       -2.4053702652
  H        -3.5431357754       -4.4947471838       -0.8931580981
  O         4.9219569822       -0.8476267244       -1.1446518971
  H        -4.5007588954       -0.5076908394       -0.5063871387
  H        -4.7621574581       -1.0156162224       -1.9939332598
  O        -2.4168750836        1.2329639207       -2.7740506171
  H        -1.7373313653        1.6912053629       -2.1804080123
  H        -1.9526004807        1.3577720401       -3.6436365896
  O        -0.5213074126       -1.6173199246       -1.8371744224
  H        -0.2049004775       -0.8751247402       -2.5021048716
  H        -1.2837199036       -2.0105288083       -2.2947233624
  O         0.8304224047        3.7074340429       -0.2898909332
  H         1.4598360610        4.2478504905       -0.8580073829
  H         0.5371159684        2.8715460128       -0.6512524751
  O         3.7381184660        2.2595868065        3.8214785300
  H         3.5187680154        2.7027431361        4.6620928517
  H         3.0287582246        2.4627279561        3.1625989069
  O         3.3337864538        4.2550742747       -1.2872621381
  H         4.0876577581        3.6995743772       -1.4363404851
  H         3.7265503335       -4.9725485313       -0.8189888000
  O         3.5293776914       -2.5906836403        2.6986874036
  H         3.9998631025       -1.8632297416        3.1323536244
  H         3.0934593357       -3.1196538591        3.4550622794
  O         2.9003831346        1.0708243507       -0.9419085752
  H         3.4314719820        0.2831841815       -0.9465591611
  H         3.4203677219        1.7543242877       -1.4258600651
  O         2.8464348632        3.9893223134       -3.9652531793
  H         3.2144586640        4.3322304872       -3.1287800282
  H         2.6158389076        4.7783622579       -4.5157660396
  O        -1.3511691872        4.5722082961        1.3747617177
  H        -0.4655358723        4.5684852740        0.8620681719
  H        -1.7752207814       -4.6480997609        1.2767993555
  X        -3.0803384849       -3.7272915664       -4.0515743385
  X        -3.4668452846       -3.7334636282       -4.4517918284
  X        -3.2402815446       -3.1216963472       -4.2591219963
  X        -2.8262291478       -3.6205869313       -4.6749160302
  X        -3.8377527666       -4.1562079768       -2.0415240150
  X        -4.2321205736       -4.6191990376       -1.7655987542
  X        -4.3093994660        4.6327254326        4.9156872449
  X        -4.3467986493       -4.1255520242       -1.5958501953
  X        -3.5440061913       -1.2491740535       -3.9501675651
  X        -3.8123508976       -4.4148379853       -1.2723295599
  X        -3.8788071612       -1.1365495769       -3.5273151078
  X        -4.2483374304        3.9739514153        4.9250377448
  X        -3.3292559800       -0.7761986908       -3.4808132996
  X        -3.9822200775        4.1922918982        4.4932850330
  X        -3.9249269080       -0.6506755474       -3.9843496529
  X        -4.6918083945        4.1188815904        4.4449792622
  X        -1.0155149300       -3.0045262253        4.5317269199
  X        -3.4718468765       -3.4888382655        1.9863113732
  X        -4.9099407371        2.6674636084       -3.0940998588
  X         3.1833415504       -1.6308916682       -4.0752950258
  X        -2.0534233202        4.1132698794        4.1877013749
  X        -3.4714600150       -3.6507747401        1.3267407613
  X        -0.9336399825       -3.5236025835        4.1023850255
  X         1.9950933393       -3.9544759932        5.0446722288
  X         3.0397630523        4.1736596895       -3.5506224848
  X        -2.9765574563       -3.5076837377        1.5051997407
  X        -0.4736949735       -3.1225464738        4.4242696951
  X        -4.4548669601        2.1627930172       -2.6995333724
  X        -3.4067035014       -2.9777132409        1.3822329642
  X        -4.9434490533       -0.9169756163       -1.5879527190
  X         5.0223040813        2.0506217269       -2.8784218459
  X         3.5835621794       -1.3832756151       -3.7788096966
  X         2.1365486115       -3.2675547823       -5.0077457929
  X         2.1072492073       -3.6732894386        4.5606661908
  X        -0.9329539724       -1.8235722140       -2.0862961297
  X         2.7449639930        4.3991504127       -4.2412966761
  X        -2.7042909107        1.4091502325       -2.7733662501
  X        -1.4680971855        4.4330842211        4.1147288556
  X         4.0910836715       -3.2786635638       -0.2767422664
  X         3.4241820005       -1.0455747575       -4.3474504036
  X         3.0653172355        3.8072475720       -4.1299154775
  X        -0.7850418579       -2.7513893736        3.9383774273
  X        -5.0452239699        2.4068330035       -2.4693685786
  X        -1.4051330319        3.8900511708        4.2400042844
  X        -2.4206813599        0.9113945250       -2.7210845390
  X         1.4768963560       -3.5580775355        4.7830218467
  X         3.7317584218        3.9538093297       -1.3444953927
  X        -2.1846510306        1.3052700934       -3.2182672464
  X         4.8567437926       -1.1287051191       -1.0406792429
  X         2.9667816517       -1.0982525003       -3.6864270537
  X         3.7502954898       -2.7762176422        2.5357942378
  X         3.9664284632       -3.3999808862        0.5025939847
  X         2.5541322715        3.8563682815       -3.8980656167
  X         3.8297017063       -3.8642512522       -0.0184431198
  X        -4.8173378565       -0.6671678857       -0.8377574161
  X        -1.9042712529        0.9310401709        4.8643485031
  X        -0.2913638672       -1.8346416590       -1.8186999949
  X        -2.0769405092        1.4636251796       -2.4633728943
  X        -1.5436249628        4.0422797236        3.5843801176
  X         3.5315947273        4.6632143759       -1.0640789755
  X        -0.3807137811       -1.2594241226       -2.1614962193
  X         3.2639756553        4.3417152950       -1.5919391831
  X         3.3298549274       -2.8567759031        3.0874967188
  X         3.4846070739       -3.4012647263        0.0144634662
  X         4.6822167693       -0.6293245716       -1.1735681058
  X         3.7809581169       -2.2125454648        2.9414651542
  X        -4.9457393216       -0.0879330677        3.3902790939
  X        -1.5583597688        5.0254488518        1.3108632803
  X        -2.2651361845        0.8114283782        4.4590545120
  X         0.2154955640        2.8387597467       -3.5616616223
  X        -0.6289339891       -1.4724175756       -1.5752313089
  X        -1.6508208715        0.5434106694        4.3453306978
  X        -4.3714170116        0.2871588364        3.3571964939
  X         3.1064655500        4.1232569836       -1.1124686885
  X        -3.2809332357       -0.6167423493        1.0490868274
  X         0.7387630951        3.0540290513       -3.8894174108
  X         3.3086523650       -2.4677061366        2.5516853670
  X         5.0040730948        0.5680256813        3.3433781502
  X        -1.2927884196        4.5310923214        1.6945485305
  X        -0.0019669125        2.9584172089       -4.1785861489
  X        -1.8502295604        1.3131463936        4.2985778403
  X         3.6119376937        2.4769685486        4.2588227449
  X         0.3270778843       -0.0774987410       -3.5221979946
  X        -3.5521784898       -0.3268139872        0.6378856054
  X        -1.5306609281        4.3419767615        1.2399118145
  X         1.0885383586       -2.7091112347       -0.4950727605
  X        -3.8250119087       -0.2800184942        1.2550527007
  X         0.3933016372        2.4521291613       -3.8974743136
  X        -4.8392133891        0.1331208324        2.8820248782
  X         0.8618104921        0.0529218789       -3.4709221050
  X         0.7242703675       -0.0279020347       -4.1102442211
  X         3.9785085545        2.4076284510        3.7243963521
  X         1.6712735890       -2.9064849204       -0.0291129967
  X        -0.9076428268        4.5912691389        1.1259342992
  X        -3.1759841995        0.0615103321        1.0692217064
  X         1.0797276701       -3.1966832970       -0.0323169873
  X         3.7878379617        1.9288350231        3.8493543431
  X         0.5214667765        0.5774891843       -3.6601821837
  X        -0.4277688673       -2.0620701824        1.9645978856
  X         1.0477047436       -2.6810406437        0.2070296399
  X        -0.8076301798       -1.5755582853        1.6463517011
  X        -0.1070686441       -1.8968094136        1.4022316763
  X         1.1287324794        3.9641999472       -0.6051025085
  X         2.0545051751       -0.4771891745        3.7798088423
  X         3.3688557014        2.3611979944        3.5125121833
  X         3.1766148580        1.4207432696       -1.1961603067
  X        -0.1955319922       -1.5752988012        1.9776414121
  X         0.5606648208        3.8799653970       -0.2145446904
  X         1.6473505011       -0.2395258065        4.0591593942
  X         3.1769421531        0.6639871023       -0.9569226816
  X        -1.8085986044        1.5487903986        1.5008593866
  X        -0.2961305900        1.2579449661       -1.1098612137
  X         1.4699983169       -0.5111203447        3.4690114647
  X         0.6940209622        3.2809558507       -0.5094379605
  X         2.6193068853        1.0197681159       -1.0914574567
  X        -1.5605956559        2.2037077816        1.4633730787
  X        -1.5246658062        1.7342657713        1.9437558740
  X        -0.3753542118        0.6842681712       -0.7570595186
  X         1.0111202724        3.6216843022       -0.0327406656
  X         1.9185991185        0.1533144814        3.5377173862
  X         0.3088386149        0.9843370264       -0.9569709579
  X         2.8867049204        1.1613514599       -0.6353066404
  X        -1.1170549506        1.5386516069        1.4460290167
  X        -0.1493492338        1.3036538578       -0.5788476749
  X         2.3429450526        2.3252757656        1.9504380586
  X         1.9867127165        2.6319840221        1.4341222604
  X         1.8452664328        2.1268089485        1.8254600541
  X         2.2832711522        1.9156460270        1.3895644880
