     224
 Particles+Wannier centers. Iteration:1_1700
  O         0.8777524105       -0.0548361162        2.4782232610
  H         1.6996172280        0.3169892478        2.2305546384
  H         0.6313274122       -0.8063562834        1.8510080980
  O         1.2338021076        0.2421171886       -4.8876770513
  H         1.1091526618        0.0695469405        4.2414154140
  H         0.8092313607        1.1182456021       -4.7254760869
  O        -4.0266645010        5.0070977163       -4.7957694808
  H        -4.4793711949        4.7398547903        4.4890218248
  H        -3.7960522753       -4.1440388570       -4.9475877727
  O        -3.5241740622       -0.6902822283        1.7680509709
  H        -3.0199416507        0.0951258372        1.4043143315
  H        -4.0320278884       -0.2115623749        2.5176768168
  O         0.4808860466        2.8834256460       -4.2505859908
  H         1.2826954304        3.5420168517       -4.1104366190
  H        -0.1261202758        3.3571006444       -4.8774247649
  O        -0.5909893617       -2.7927408365        4.9014971801
  H        -0.6288798025       -2.4765499053        3.9757773367
  H        -0.3314482399       -3.7485950268        4.9321285222
  O        -3.7725463849       -4.5227284232        1.1813804564
  H        -4.6400113529       -4.2391609661        1.4866499299
  H        -3.2648006837       -3.7296215639        1.0721821734
  O         0.2661787959        0.4925851809       -1.0012877321
  H         1.0009668179        1.0870370366       -1.2661192865
  H         0.2359450544       -0.3319020205       -1.5543278309
  O        -1.1764681284        4.6780193653        4.3525452397
  H        -1.3674127687        4.4896657933        3.4359486554
  H        -2.1044128486        4.8906781671        4.6675512462
  O         2.7132667906       -3.1303308031        4.8942209414
  H         1.7822601035       -2.9756678274        4.6708870091
  H         3.0145814297       -2.1716613394       -4.8298696756
  O        -1.1548624333       -1.9242928675        2.1996225856
  H        -1.8816064457       -1.2541425173        2.1394127648
  H        -1.1852768584       -2.4239432409        1.3488921934
  O         2.2224181249       -2.6300549682        0.3671457050
  H         2.5950133618       -2.1099232301       -0.3709762189
  H         2.7782013927       -2.4738385208        1.1815798789
  O        -2.1991528051        1.2509064378        3.9137888356
  H        -1.9768366523        1.5830587771        2.9932090107
  H        -1.6287324289        0.4709958727        3.9945141988
  O        -3.2146554464        0.3161076224       -3.4536042299
  H        -3.9557800384        0.7609018720       -3.0181014951
  H        -2.7535218096        1.0798999722       -3.8887861182
  O        -4.8696250477        0.6135445685        3.8879055821
  H        -4.0100908305        0.9982267302        4.2504041646
  H         4.6619002599        1.4031424069        3.6775782280
  O        -2.8736744499       -2.5553654723       -4.4639294722
  H        -1.8769543361       -2.5039522885       -4.7795660025
  H        -3.1546487695       -1.5935618911       -4.3457770465
  O        -1.5132433833        1.2887833848        0.7443788650
  H        -1.6342847322        2.2911374287        0.8336774099
  H        -0.6126213787        1.1189703779        0.4261940680
  O         2.9097371390        1.8865398785        1.2913608775
  H         3.4500070213        1.5224896554        0.4982974194
  H         2.1234051976        2.1086472507        0.7775561134
  O        -4.1205399584        3.1461400206       -2.4035922709
  H        -3.1113162003        3.0498283883       -2.3295918658
  H        -4.1781940931        3.7266543549       -3.2007960798
  O         3.6114587406       -0.6642463735       -4.1726235679
  H         2.8158589909       -0.0791697767       -4.4461651436
  H         4.4415616772       -0.3342660351       -4.6087939982
  O        -0.5110801984       -3.5926590724        0.1310296139
  H        -0.6720427265       -3.6354488014       -0.8411463582
  H         0.4609439464       -3.2717662785        0.3116765033
  O        -3.0587739573       -3.2345349180       -1.9210384341
  H        -3.0732675702       -3.0877301211       -2.9208535098
  H        -2.9724325234       -4.1727694570       -1.8526721401
  O         4.9248339096       -1.4716301895       -0.5436973335
  H        -4.5252477840       -1.1806367783        0.1622019240
  H        -4.6738554418       -1.9656504230       -1.2361339206
  O        -1.3282555580        2.8837957961       -2.3721943869
  H        -1.3932316587        2.0746916212       -1.8733771026
  H        -0.6747836184        2.6136885793       -3.0693855055
  O        -0.0244093246       -1.8211673360       -2.3345331332
  H         0.3516890782       -1.6271712714       -3.2164378962
  H        -1.0124377702       -1.9326952907       -2.3566123864
  O         1.0282518312        3.3340595325       -0.7339109861
  H         1.6539002015        4.0717981399       -0.7582584440
  H         0.2884751778        3.6922458192       -1.2867840550
  O         4.1283047015        3.1734941062        3.4517130842
  H         3.5113730903        3.2096486966        4.2158240915
  H         3.5729598795        2.8441587252        2.6827199202
  O         3.5745461124        4.9921198136       -1.2628265223
  H         4.3786931151        4.3679301319       -1.5277954982
  H         3.9117944534       -4.4107534132       -0.6781618484
  O         4.3504166086       -2.8656031807        2.5162694852
  H         4.5792394861       -2.0005237980        2.7490695772
  H         4.0028304921       -3.3743525337        3.3589572617
  O         3.8565477108        0.9237428436       -0.9056158364
  H         4.3694178148        0.1154795579       -0.8659080676
  H         4.2319927701        1.6583363719       -1.4090605430
  O         2.5939305194        4.4683298741       -3.9183753440
  H         2.9005662952        4.8087542170       -3.0198744126
  H         2.6753943990       -4.8589896323       -4.5240890653
  O        -1.7173560972        4.0579302769        1.5205453232
  H        -1.0982547086        4.6766404354        1.0799332889
  H        -2.6039138914        4.4342988652        1.3094020986
  X        -3.9295024239       -4.6067848564       -4.8777603390
  X        -2.8785768884       -2.6806049439       -4.1418910948
  X        -3.0719886601       -3.1768076989       -2.4096736574
  X        -4.2020396451        4.9604341965       -4.5403043389
  X        -3.0598647613       -2.7093779974       -4.6836323803
  X        -3.7426145182        4.8703269715       -4.8210600790
  X        -3.0202846171       -2.0579580721       -4.4165038455
  X        -3.0158550219       -3.7472616644       -1.8893689020
  X        -3.3378866165       -3.1449772717       -1.7952294806
  X        -4.2730957497        4.8764620654        4.8712127170
  X        -2.4269112075       -2.5181248582       -4.6045990192
  X        -2.7840782672       -3.1170878078       -1.8234286568
  X        -4.1496614003        3.4428217953       -2.8207920394
  X        -0.9243633521       -2.7545883967        5.0260792935
  X        -1.6512461208        4.7872679253        4.5149596846
  X        -4.2421514987        3.3132606731       -2.1577987479
  X        -3.0338726981        0.2264162313       -3.2361837249
  X        -3.6204531128        3.1058552264       -2.3592684338
  X         2.7167970952       -3.3648834226       -4.9771242502
  X        -0.4614957753       -3.2793788589        4.9020682974
  X        -3.3193248638        0.1135101417       -3.6800575608
  X         2.6299156699        4.8649676788       -4.2227468566
  X        -4.2338380643        2.8612908062       -2.4782343433
  X        -3.6125828411        0.5520667131       -3.2324765164
  X        -3.5104115257       -4.0885704021        1.1360468098
  X        -0.3683199953       -2.6319224724        5.0415200369
  X        -3.6218766679       -4.7166126028        1.3892560990
  X         3.9900400266        4.6866841717       -1.3785241768
  X        -2.9815498612        0.7213371514       -3.6836487331
  X         2.8723852576       -3.1780150951        4.6141855499
  X         2.8461352423       -2.6835021317       -5.0221784739
  X        -4.2215368234       -4.3747882939        1.3446549277
  X        -4.9015936646       -1.7199669590       -0.9005326301
  X        -0.9959254849        4.9482517007        4.3799895836
  X         2.7381547207        4.6478233280       -3.4679043160
  X        -3.8049119838       -4.6234628634        0.9037851375
  X         3.5341243641       -0.9823314718       -4.3197676627
  X         4.1925551630       -3.1055523205        2.9515721372
  X         2.2595040248        4.3589305746       -3.9105061975
  X        -1.0784250952        4.3999966269        4.4951696623
  X        -0.5992239813       -2.6571211608        4.4247192110
  X        -0.5394110984       -1.8703645506       -2.3776203239
  X         3.4795008688       -4.9818630628       -1.5441690680
  X         2.2143102075       -3.0453558469        4.7731694675
  X         3.7691207526       -4.7430498859       -0.9632054028
  X         4.0347767954       -0.4856566347       -4.4022328688
  X         4.6057666687       -3.0199087905        2.3954703551
  X        -1.6399701412        2.9422974867       -2.4899569490
  X         2.7990082741        4.2642330287       -4.0113997822
  X        -1.2708751486        4.5873928051        3.8750724719
  X         3.6452515508       -0.6490290663       -3.8712021492
  X         4.4757227060       -2.4031910373        2.6638857681
  X         4.7237513037       -1.6596263229       -0.4216731375
  X         0.1426586572       -1.7244523514       -2.8077372507
  X        -4.8276036504       -1.3392238955       -0.1921044722
  X         0.0845330258       -2.0888066983       -2.2439322156
  X        -4.4468083351        0.8217605625        4.0766169101
  X         3.3717809260        4.8232104089       -1.0991648483
  X         4.0918924894       -2.8314041928        2.3342155279
  X        -1.1825470311        3.0946985346       -2.1927423467
  X        -0.5767052911       -3.6080785944       -0.3835247475
  X         3.2469559427       -0.3569788852       -4.3179588613
  X         4.8209152286       -1.1836955862       -0.6748201682
  X        -1.0262430993        2.7413734607       -2.7264652442
  X        -5.0067676488        0.4391739011        4.1181273991
  X         4.2486506807        3.4549002236        3.4101844891
  X         0.0309296074       -1.5438835888       -2.1518956549
  X        -3.2945871413       -0.8766857617        1.8964352785
  X        -2.0945560715        1.4507819957        4.1164830520
  X        -4.7753369355        0.4606239940        3.5957786173
  X        -2.1579549688        4.2439903860        1.4048332202
  X        -0.7109165889       -3.3607144524        0.2582794273
  X        -1.1984289649       -2.1157473073        2.4603699400
  X         0.1793381550        3.1270065599       -4.5763689482
  X        -1.3635587505        2.4539494276       -2.1067170419
  X        -0.5398206639       -3.8946083470        0.2422052798
  X        -3.7293934557       -0.7986092501        1.5341529795
  X         0.8556742672        3.1972934047       -4.1874916711
  X         4.9478876914        1.0096547988        3.7833902522
  X         3.7888507828        3.1916146166        3.8477702962
  X        -2.5142209245        1.1569730811        3.9236696605
  X        -3.7795932680       -0.4628386345        2.1378893562
  X         4.3133340868        2.9162338696        3.5185804654
  X        -1.1954627746       -2.1806980404        1.7713341182
  X         0.3035451048        2.8536263115       -3.9639911991
  X        -1.6743561251        4.0984909365        1.8426748280
  X        -1.9005933374        0.8287845699        3.9480870275
  X        -1.5200318044       -1.5820477832        2.1659646247
  X        -0.0297854393       -3.4392816586        0.1977434137
  X        -1.3998273004        4.3793311691        1.2861370707
  X        -3.2760400974       -0.2864583690        1.5819938884
  X         0.5830143278        2.6018954577       -4.3923585020
  X         2.4206623352       -2.3439128271       -0.0095766556
  X        -2.0865096857        1.4150121367        3.4389317900
  X         4.0825424576        1.2950071447       -1.1781230724
  X        -0.8826220890       -1.7763493539        2.1789505028
  X        -1.6863374713        3.7522546128        1.3874785361
  X         1.0743116655        0.0246513965       -4.7361143387
  X         2.5054144490       -2.5252026349        0.7807703290
  X         3.8374540434        3.0276267279        3.0742981091
  X         2.2812447445       -2.9154230689        0.2973090955
  X         4.1450150989        0.5379770912       -0.9044204393
  X         1.5697939651        0.2657454259       -4.8264782140
  X         1.0162976233        0.6876081495       -4.8158963672
  X         3.5985397497        0.8593808284       -1.0363088498
  X         1.9026409149       -2.5573921483        0.4177746435
  X         0.6444688185        3.5267323517       -1.0179363633
  X         1.1703080808        0.1662676082        4.7208416048
  X         1.3564715679        3.7256795857       -0.7516404385
  X         3.8286872729        1.0459344807       -0.5775907400
  X         0.2775623717        0.0850345784       -1.2794058104
  X         1.1519229876        3.0909855942       -0.8838089711
  X        -1.7122568210        1.1890867852        0.5301613842
  X        -1.5616553090        1.7991496736        0.7788085542
  X         0.0120118416        0.6497820326       -1.0771369996
  X        -1.5593758452        1.1783941104        1.0483209704
  X         0.9316860852        3.3105529419       -0.4423116062
  X         0.6646995716        0.7842086115       -1.1569697477
  X        -1.0474461620        1.2192743858        0.6006306013
  X         0.3023842906        0.4297574787       -0.6919046778
  X         0.9131333640       -0.1663233512        2.7934121349
  X         3.0379664108        2.1583242873        1.4436089769
  X         0.7820935512       -0.4438476979        2.1550345833
  X         3.1866113916        1.7258157844        0.9266141228
  X         0.6777960606        0.1573001413        2.4296849170
  X         2.8266902575        1.6361201203        1.4674516274
  X         1.3228158193        0.1238562054        2.3347257398
  X         2.4904592902        2.0116153528        1.0277068223
