     224
 Particles+Wannier centers. Iteration:1_2300
  O         1.4958775530       -0.1847591465        2.8007675759
  H         2.3240498673        0.0632063878        2.4278403703
  H         0.9719380730       -0.2705229134        1.9633282603
  O         1.2655573197        1.0188041247       -4.6003936414
  H         1.1260514871        0.8293005660        4.5109294168
  H         0.7833745786        1.8525666122       -4.4449763218
  O        -3.2767980326       -4.8106621499       -5.0414201292
  H        -3.9975397801        4.8590235185        4.5622756034
  H        -3.5752318164       -3.8278815669       -4.8865131274
  O        -4.1854996211       -0.5411918253        1.3875465292
  H        -3.6976096033        0.2617569494        1.5763652428
  H        -4.9400808505       -0.3890721493        2.0469690760
  O         0.5020263043        3.5055525984       -3.8661496401
  H         1.4734490789        3.7658747826       -3.7155448685
  H         0.3146830148        4.0030358218       -4.7063301873
  O         0.3218760121       -2.8521201742        4.3132423329
  H         0.3062272992       -2.2231564088        3.5632298788
  H         0.1089857391       -3.7196337961        3.9046034836
  O        -4.1333200941       -4.5171369532        0.9061887011
  H        -4.6378896334       -4.3633218263        1.7622736841
  H        -4.2878604978       -3.7901888216        0.2685629332
  O         0.4082086342        0.5112444904       -0.1874470871
  H         0.8340115107        1.2288643128       -0.7233207514
  H         0.8156982136       -0.3334348593       -0.4987096473
  O        -0.9422666635        4.9303581425        3.9722400807
  H        -1.2812522529        4.7536849091        3.0635688315
  H        -1.7642476744       -4.8948140725        4.4469907432
  O         2.8599156755       -3.0975652622       -5.0002750285
  H         1.9503482938       -2.7503280047        4.7398473894
  H         3.3067766577       -2.2563303121       -4.6650394560
  O        -1.2269245895       -1.8683233317        1.7529899244
  H        -2.1498681405       -2.0371705180        1.6298791036
  H        -0.8875357924       -2.7268930386        1.3470769323
  O         2.0043700772       -2.5251640854        0.9475257268
  H         2.6141798690       -1.9526403562        0.3918929499
  H         2.5455569523       -2.8192149811        1.6904162636
  O        -1.5894424059        1.3232560861        4.3092677930
  H        -1.4100522792        1.1619384995        3.3667912942
  H        -1.1414756056        2.1615024783        4.5011527321
  O        -4.0053137822        0.6214130358       -3.3599039787
  H        -4.3746738321        0.6440080685       -4.2900792121
  H        -3.0104860540        0.9216592122       -3.3862102050
  O        -4.3069542653        1.0896975074        4.1120917284
  H        -3.2943191629        1.2272428824        4.1750129178
  H        -4.6742223642        2.0054373204        4.2238033268
  O        -3.5430377861       -2.1733552021       -4.0727940923
  H        -2.6755274930       -1.7239487399       -4.0535884025
  H        -4.1355159810       -1.4196758886       -3.7722224525
  O        -1.9575604013        1.1939085806        1.2159019703
  H        -1.8455413493        2.1585945734        1.1876304532
  H        -1.2214277324        0.8707860624        0.6326002211
  O         3.3203058046        1.9674897396        1.5225932371
  H         3.7705256435        1.9443756746        0.6524697578
  H         2.3814544434        1.8835288223        1.1960899074
  O        -3.8059405958        4.0324082589       -2.3921827852
  H        -3.0700380917        3.4550020114       -2.0959828913
  H        -3.6590647965        4.0692302723       -3.3402906892
  O         3.6063904347       -0.6069731984       -4.9624257266
  H         2.8849212618       -0.0314378354       -4.6559283147
  H         4.2193139774       -0.0724082477        4.5773216918
  O         0.2244901783       -4.2306475949       -0.0013005649
  H        -0.0135229402       -4.1809071459       -0.9667957602
  H         0.9993207701       -3.7050255528        0.1610421085
  O        -4.2068886854       -3.3322397341       -1.6806628195
  H        -3.7419942786       -2.9007931003       -2.4179771182
  H        -4.0251232708       -4.2665272848       -1.9011235438
  O         4.0729146086       -0.9765035519       -0.6096711553
  H         4.8708664141       -0.7669076622       -0.0310159164
  H         4.4507799758       -1.5890758599       -1.3393335740
  O        -1.6393125284        1.9470693859       -2.5405515154
  H        -1.0272733907        1.4659081931       -1.9079969365
  H        -1.0951957515        2.5967578350       -3.0360711685
  O        -0.8399456661       -1.1495779042       -3.9185313797
  H        -0.4574178960       -1.7461846715       -4.6117960346
  H        -0.7493714386       -0.2206504212       -4.1272782227
  O         1.3879483351        3.0217132997       -0.8854017454
  H         2.2779672001        3.2920737155       -1.2028957006
  H         0.8862214092        3.8492985282       -0.9124567007
  O         4.7219462610        3.5812097586        4.2434971613
  H         4.0586655283        3.9509210286        4.8907561368
  H         4.2434369670        3.4425571933        3.4160723498
  O         3.8812405607        4.6188525682       -1.1120157493
  H         4.6769215173        4.2315517240       -0.6462213671
  H         3.8249694233       -4.4671815968       -0.9403477619
  O         4.7599098114       -3.0741252105        2.9629706244
  H        -4.6462569520       -2.3831634203        3.1968226150
  H         4.1629853676       -3.1212167592        3.7458879051
  O         4.0345678908        1.8380766696       -1.3233698617
  H         3.4742277784        1.0831360973       -1.1249900719
  H         4.6182466284        1.4831736399       -2.0666106036
  O         3.1366297760        4.5473177157       -3.9285733898
  H         3.6451100990        4.3942967578       -3.0888453262
  H         3.0834372338       -4.5602812313       -4.1645312425
  O        -1.7434900490        4.3575504067        1.5108249251
  H        -1.0412483404        4.6444628751        0.9322688134
  H        -2.5246915160        4.8118329219        1.2240818260
  X        -3.4362813385       -4.3245999286       -4.9785789440
  X        -3.6174541428       -2.2925591533       -4.3655423877
  X        -3.2840497862       -4.9481722517       -4.7588763316
  X        -3.9590417248       -3.1046171005       -2.0445418322
  X        -3.5399779777       -2.3786841550       -3.8210249251
  X        -2.9850217163       -4.8105069430        4.8825049664
  X        -3.8554038336       -1.7937655467       -3.9328766203
  X        -3.1049600876       -1.9439283516       -4.0723463609
  X        -4.1174525815       -3.8104524026       -1.7942951562
  X        -3.6467385917       -5.0171553972        4.7904263768
  X        -4.5162114860       -3.2783362677       -1.7241913193
  X        -3.7244984366        4.0411417829       -2.8929258916
  X        -4.0784200809       -3.2734096350       -1.3911296013
  X        -3.7605968198        4.3400710381       -2.2812656953
  X        -4.0630052317        3.8859936650       -2.3418569555
  X        -3.4147241201        3.7386065856       -2.2388762697
  X         3.1220565670        5.0348937952       -4.0116282022
  X         2.8284770016       -3.3521828861       -4.7638606802
  X        -4.9767175526       -2.7087511618        3.0983351554
  X        -4.0006101205        0.3064244332       -3.2924376575
  X         3.3995178208        4.4887600125       -3.5040952243
  X         3.0737051533       -2.6892099621       -4.8099004910
  X         3.0421341665       -3.1620420461        4.8312534878
  X        -1.3445457271       -5.0260716384        4.2073546492
  X         3.3158860622        4.4057983353       -4.1899741603
  X        -4.2270124174       -4.1247365583        0.5996612040
  X         4.4725540858       -3.0954432430        3.3700424221
  X         4.3864944830        3.7523140691        4.5520148493
  X        -4.1773584693        0.6438115848       -3.8328552277
  X         4.9126392716       -3.3593497720        2.9129592966
  X        -1.1706870035       -1.2134176330       -3.9300435097
  X        -3.5075808953        0.7731888848       -3.3994828046
  X        -4.3946299106       -4.4253654299        1.3345522901
  X        -4.1735606680        0.8239269307       -3.1733607618
  X        -3.8131661378       -4.5238944615        0.9775575876
  X         3.9252208735        4.5953662719       -1.4309987437
  X         2.8236552191        4.4343370566       -3.8782491982
  X        -4.2501456320       -4.7679820235        0.7745772874
  X         2.4222353357       -2.9260462794        4.9369598428
  X         4.9529943920        3.8116053427        4.1989011140
  X         4.5934855012       -2.9531061819        2.7375866841
  X        -0.6351567962       -1.4226728298       -4.2877629690
  X         4.8214793205        3.2736624555        4.3313024843
  X        -0.6936725688       -1.1996988864       -3.6585099467
  X         0.2195520325       -3.2828103326        4.1023217106
  X         3.7664175161       -0.6827719692       -4.7152050653
  X        -0.7259400869       -4.9102366488        3.9509971137
  X        -0.8342256239        4.6527824342        4.1053608076
  X         3.8670619375       -4.9524353900       -1.0057549884
  X         4.2940197657        4.4433545988       -0.8634813433
  X        -4.4010674567        0.9199893687        4.3881790766
  X         0.6516381102       -2.8541140032        4.4102331164
  X        -0.7822176768       -0.6634592528       -4.0521481486
  X         0.0965489400       -2.7582645324        4.5277779706
  X        -1.7609673860        1.7297810530       -2.7472566347
  X        -1.1121748320        4.8402296222        3.5217168945
  X         3.9091311340       -0.3234432258        4.8416001110
  X        -4.4822168001        1.5526154056        4.1643906826
  X         4.4617547255        3.5227680982        3.8064142033
  X         0.3078282281        3.6044893824       -3.6388593778
  X         4.2709441597       -1.2890326650       -0.9872640160
  X        -3.8121711932        1.1592571345        4.1411418484
  X         3.4888743188       -0.8468501102        4.9785629394
  X         3.6156908581        4.4906537506       -0.9906727952
  X        -1.8352189086        2.1180260439       -2.3673785852
  X        -2.1377819917        4.5968468378        1.3549626977
  X        -1.3462408944        2.2741241562       -2.7938629550
  X         0.9795052097        3.6313290591       -3.7835298429
  X         0.4095768007        3.7642450072       -4.3014324916
  X         0.3087878792       -2.5308669447        3.9158961588
  X        -4.3860006225        0.9778448242        3.8298321827
  X         3.2406894327       -0.3000199226       -4.8176377750
  X        -1.9249760609        1.3735863459        4.3227936126
  X         0.1157715834       -4.1923302955       -0.5186899599
  X        -1.7257240457       -1.9591825379        1.6910005923
  X        -3.9376465628       -0.1222123751        1.4799411853
  X        -1.6641271961        4.4620948270        1.8229001293
  X         0.4971661634        3.1811750853       -3.9548873686
  X         4.3273348523        1.6514545727       -1.6971211343
  X         3.9735627828       -0.7101848881       -0.7424710336
  X         3.8562721434       -1.1626931979       -0.4303765629
  X        -1.3065479268        1.7076071328       -2.2185373917
  X        -1.7837191823        4.0459507977        1.4620182448
  X        -4.0242193883       -0.7851955556        1.4893263250
  X        -1.3533972115        1.7734084964        4.4012478558
  X        -0.0145517887       -4.1006826628        0.1520707877
  X        -1.1644307203       -1.8826943400        2.0573422746
  X        -1.0491124869       -2.3190010644        1.5431064511
  X        -1.4585990428        1.1058369227        4.4767584762
  X        -4.5871081557       -0.4683179364        1.7310924556
  X         0.2811081723       -4.5374081150        0.0476779358
  X        -1.3817521208        4.5130732829        1.2004147851
  X        -4.3232610125       -0.5312708092        1.0824995223
  X         4.4742872234       -0.8820852381       -0.3296262724
  X         3.8545259948        2.0694780622       -1.4330326859
  X         0.6247814689       -3.9684470085        0.0570622123
  X         4.2013034058        1.8756431971       -1.0583190189
  X        -1.4831044443        1.2502215412        3.8202696847
  X        -1.1453825567       -1.6390107391        1.5694134211
  X         2.2978256714       -2.6765746583        1.3366673682
  X         1.1136682214        0.7969038429       -4.4562551939
  X         1.0224614236        1.4470696131       -4.5320887307
  X         1.9199947731       -2.7947008552        0.7667519171
  X         1.5819492836        1.0537038434       -4.5599337041
  X         3.7282704723        1.4358515685       -1.2272880582
  X         2.3202588820       -2.2379826697        0.6710495639
  X         1.1185751164        3.4603719390       -0.9128551915
  X         1.1872260980        0.9377091458        4.9883904397
  X         1.7860664937       -2.3504844985        1.0539741014
  X        -2.2455461555        1.1164314452        1.1116716808
  X         1.8363194060        3.1627362402       -1.0598594239
  X        -1.8957249323        1.7032297427        1.1881113131
  X        -1.8723763096        1.1214408234        1.5138057034
  X         1.2524790318        2.7879268098       -1.0706486814
  X        -1.5892227493        1.0340633455        0.9096993118
  X         1.5177261947       -0.4667769435        2.9158502265
  X         1.4231250533        2.9633012307       -0.5883519875
  X         3.5540828922        1.9549329866        1.0714611199
  X         3.3542517238        2.2454686433        1.6513936738
  X         0.6239024587        0.0670841480       -0.3615412181
  X         3.3818040884        1.6935999272        1.6710259954
  X         1.3864731670        0.0664369692        2.9752069971
  X         1.9434613997       -0.0572850737        2.6015919755
  X         0.0917073297        0.5121227718       -0.2515687590
  X         0.6308488366        0.8625677836       -0.4704151986
  X         1.2213901564       -0.2203242098        2.3634257397
  X         2.8229175762        1.9235654264        1.3514402569
  X         0.4991629574        0.5484897188        0.1046583099
