     224
 Particles+Wannier centers. Iteration:1_950
  O         1.7024172514       -0.2486464357        3.2121105951
  H         1.7381712051        0.5880649255        2.7913652958
  H         1.0908210690       -0.7982875002        2.6708241044
  O         1.1473036867       -0.1686210187       -4.2540577445
  H         1.1906140921       -0.3457468745        4.8449331825
  H         0.8970999833        0.7909555114       -4.1894371291
  O        -3.7723277371        4.1319668935        4.4911449923
  H        -4.4438770723        3.8802204931        3.8292423416
  H        -3.8164833725       -4.9561002587        4.6201358568
  O        -3.3093689292       -0.4479408357        1.1397145929
  H        -2.7124806503        0.2842432580        0.8870518515
  H        -3.9178029265       -0.0292456133        1.7644841252
  O         0.0494498908        2.8306902890       -3.7118128636
  H         1.0114956198        3.0454658543       -3.5861498456
  H        -0.1440760483        3.3143137163       -4.5741839911
  O        -0.6808986963       -3.6091776028        4.5246400551
  H        -0.6169788578       -3.2650267831        3.5939323137
  H        -0.8134366404       -4.6223525747        4.4240401500
  O        -3.2885032529       -3.3529731555        2.0127100081
  H        -4.0869736838       -3.1963945087        2.5777472119
  H        -3.2865033165       -2.7569217886        1.2236621698
  O         0.0942697239        0.4840920030       -0.8212548026
  H         0.9975952614        0.8392798584       -0.9966158730
  H         0.0209879381       -0.4570974966       -1.0378233600
  O        -1.1993705555        3.9527972442        4.0793351926
  H        -1.2741766853        3.9679456618        3.0958257112
  H        -2.1553966347        3.7587926943        4.3291025277
  O         2.0587193310       -3.6137068098        5.0072338694
  H         1.0620859005       -3.4644835935        4.9804052648
  H         2.3903322600       -3.1057323873       -4.2933422132
  O        -0.4404323866       -1.7176452527        2.3756742377
  H        -1.3769055235       -1.2764500317        2.4254957650
  H        -0.2976203358       -2.2028512192        1.5001003884
  O         3.2943636303       -3.0781048662        0.2011629872
  H         3.7313817493       -2.3196662288       -0.2661929449
  H         3.7217934877       -2.9643335082        1.1274251436
  O        -2.4963230308        0.6474651442        4.1747118355
  H        -2.0153271033        1.0901531020        3.4162327636
  H        -1.7718965842        0.2073432016        4.6554464200
  O        -3.5278288187       -0.6777255095       -3.1811151635
  H        -4.4244794162       -0.2888048058       -3.0194814682
  H        -2.8281837184        0.0584474537       -3.0342682845
  O         4.8336716208        0.1562038116        3.3582559514
  H        -4.4244801025        0.2084035996        3.8226169498
  H         4.4328619146        1.0564374672        3.4112175937
  O        -3.2015355899       -3.1703021905       -4.7280338775
  H        -2.2103106913       -3.1026620970       -4.9332160386
  H        -3.5196697591       -2.2318186470       -4.5619220447
  O        -1.3041790314        1.6379131539        1.1302385972
  H        -1.4940238111        2.5498570363        0.9224316966
  H        -0.7673174426        1.3215333116        0.3284081886
  O         1.9562583511        2.1889953870        1.7587266785
  H         2.2553694103        1.6663507061        0.9365221226
  H         1.0298193621        2.3791351687        1.6119384392
  O        -4.6605322992        2.9021333565       -3.1548552145
  H        -3.7608056650        2.7520557627       -2.8315339434
  H        -4.5635704805        3.3303831653       -4.0805947193
  O         3.5396140269       -1.3325408741       -3.6861286240
  H         2.7577054602       -0.7650693950       -3.7752624650
  H         3.8484804404       -1.4036511071       -4.6006698104
  O         0.5619677409       -3.2977278499        0.2563223165
  H         0.0823499327       -3.3478526777       -0.6034364742
  H         1.5364363186       -3.1201973451        0.2071950147
  O        -3.3271659996       -4.3397510231       -2.0008308503
  H        -3.4530188481       -3.8834431769       -2.8513195755
  H        -2.4844789021       -4.8185841386       -2.1788571235
  O         4.7423064040       -0.8068268541       -0.8350830551
  H        -4.5949457784       -0.7609757830       -0.1725838141
  H        -4.9544792248       -1.3722190966       -1.5223346564
  O        -1.9121827691        1.4100498653       -2.6124796962
  H        -1.6238685792        1.1702369385       -1.6828104181
  H        -1.2176295151        2.0260258132       -2.9142862756
  O        -0.5093913107       -1.8976140302       -2.1602444066
  H        -0.2225948425       -1.8552583125       -3.0733952894
  H        -1.4849995324       -1.8128005425       -2.1879445882
  O         0.9721620742        3.8574696867       -0.9336621653
  H         1.9000115200        4.1774566567       -0.9044628856
  H         0.8599842429        3.8883927073       -1.8797572970
  O         3.8861808429        2.9931744478        3.5165105582
  H         3.3227654487        3.1843924806        4.2709090809
  H         3.2577852659        2.9484615163        2.7226492514
  O         3.7677801835        4.5966672824       -1.2719477811
  H         4.6649753879        4.4503829740       -1.8148690717
  H         3.7467176108       -4.5960865089       -0.9832340746
  O         4.1026747360       -2.6950308537        3.0648861833
  H         4.0535528070       -1.7267862512        3.1472862165
  H         3.3025709232       -3.0809968142        3.6130488840
  O         2.9427821824        1.4119219474       -1.0209436950
  H         3.7562307730        0.9613016419       -1.1792209578
  H         3.2366068558        2.3494465610       -0.9998433542
  O         2.3710492591        3.9374790836       -4.1699938032
  H         2.9645803386        4.1346177664       -3.4182390921
  H         2.0674391254        4.7942165612       -4.5358655803
  O        -1.4786113870        4.5062449536        1.3081703848
  H        -0.6725639154        4.9371896864        0.9596224074
  H        -2.1897015208       -4.8810632249        1.3849006539
  X        -3.2252543316       -3.3102699397       -4.4356973273
  X        -3.3891724122       -4.1044372111       -2.4443401237
  X        -3.3483497043       -3.3097318719       -4.9785972011
  X        -3.3608865719       -2.6840273157       -4.6627316573
  X        -2.7121258570       -3.1165227812       -4.8234573598
  X        -3.5488021907       -4.5514410571       -1.9737818698
  X        -3.2652366998       -4.1302478242       -1.7879709189
  X        -2.8744367037       -4.5942175638       -2.1031593740
  X        -3.8046263845        4.6433557475        4.5361466335
  X        -3.4883582690       -0.8930282212       -2.9534268208
  X        -3.8883975339        4.0082918014        4.7669384247
  X        -4.5998123485        3.1146298313       -3.6219693593
  X        -3.4551708393        4.0465093397        4.3975852483
  X        -3.5200854352       -0.7751439026       -3.4887320043
  X        -3.9904190375       -0.4577251224       -3.0928362373
  X        -0.9575729512       -3.4762674310        4.6684211961
  X        -4.1072181882        4.0195936852        4.1346238307
  X        -4.7933137235        3.1264224936       -2.9626728175
  X        -3.1969165982       -0.3098317900       -3.1071446424
  X        -4.1758759338        2.8368847796       -2.9985112053
  X        -3.7080616517       -3.2624542076        2.2813706499
  X         3.4254261798       -1.6248573371       -3.6278564650
  X        -0.3723477663       -3.5553278193        4.6639907120
  X        -4.7860455101        2.6275717970       -3.1853536429
  X         2.2172566883       -3.3516809427       -4.6760283081
  X        -3.2827808281       -3.6622145689        1.9054351345
  X        -0.7407518784       -4.0941312561        4.4726428986
  X        -3.0527762102       -3.2581029612        2.1695331254
  X         4.2111111207        4.5406046479       -1.5384847975
  X         3.7658253996       -1.2042897803       -3.5142974749
  X         4.3861930586       -2.7963568954        3.1806878503
  X         3.7001790679       -1.3610167513       -4.1806227728
  X        -1.0244361067       -1.8501856991       -2.1891376140
  X        -3.3168172646       -3.0379367974        1.5976321909
  X         1.5678620377       -3.5206075434        5.0019736576
  X         2.0866931178       -3.9396316447       -5.0134842497
  X        -0.6526592832       -3.4511124059        4.0443381385
  X        -1.6625794542        3.8500726416        4.2063462223
  X         2.2075570089       -3.4950392208        4.7388529654
  X         2.2166656709        4.3747093151       -4.3367313396
  X        -0.3730739681       -1.8744654762       -2.6483459211
  X         3.7707179134       -5.0256242440       -1.1328664174
  X         4.9600067836       -1.1030084474       -1.2007649212
  X         3.7042375770       -2.8777080651        3.3423436466
  X         3.5204205171        4.5587725868       -1.4788149292
  X        -0.4516918609       -2.1882441840       -2.0551961558
  X         3.1500592368       -1.0359526532       -3.7351256203
  X         4.0363621760       -2.7519423628        2.7487560462
  X         2.6804309491        4.0579502674       -3.7829607047
  X        -1.9300150532        1.1226108776       -2.7806337479
  X        -1.1377718602        4.2848604594        4.1689708287
  X         2.5402755560        3.7964066614       -4.3989910637
  X        -2.5903613915        0.8647068760        4.3471698722
  X         4.0655190708       -2.1947884049        3.1226984299
  X        -2.1812610509        1.5763925568       -2.5878515391
  X        -0.9906265320        3.7260935104        4.1912941352
  X         3.7723204537        4.4157203195       -1.0260937573
  X        -0.3964875805       -1.6386872405       -2.0010958061
  X         3.4002587205       -3.3526337820        0.0651840541
  X         4.5078155698       -0.9916262951       -0.7017177601
  X         2.1068954743        3.7725021538       -4.0375289546
  X        -1.5590245509        1.7068768235       -2.7634363535
  X        -2.1054908722        0.4108836400        4.4201402800
  X        -4.9699289366       -0.7883783925       -0.5014035973
  X        -2.6919848630        0.4295627304        4.0557492467
  X        -1.8298141613        4.8732025085        1.3303997075
  X        -0.0431417674        3.0834349613       -4.1471315137
  X        -4.8305449512        0.1947364914        3.6140249358
  X         3.5077992845       -3.0233300983        0.6651932669
  X        -1.2307482368        3.9474802194        3.5816220215
  X         3.5105790560       -2.6910796398       -0.0403706226
  X        -1.7659808399        1.2954542456       -2.1254256025
  X         4.1162171665        3.2259379582        3.4897653991
  X         4.6907012391       -0.5201687509       -0.9523132557
  X        -0.1381976128        2.9370797968       -3.4735884523
  X         0.5272221881        2.9394049410       -3.6307544568
  X        -3.4943135776       -0.5317819035        0.8730378088
  X        -1.4116897343        4.4213523785        1.6211999910
  X         4.6504051476       -0.0694575381        3.4850443265
  X        -2.2382323902        0.8704259377        3.7767498818
  X         2.9597948630       -3.0217776538        0.2255905121
  X         4.9280300885        0.1253334556        3.0532617144
  X         0.3409043375       -3.3168415835       -0.2088275922
  X         0.9119784235       -0.3371795913       -4.1286810307
  X        -1.0649626800        4.7424516635        1.1281135469
  X        -3.1448163170       -0.6618031751        1.2873333630
  X         0.0358556657        2.5234688714       -3.7749934986
  X         3.5816135641        3.0951408389        3.9036958740
  X        -3.6203107821       -0.2216376193        1.4646822784
  X         3.9790678824        2.6861958121        3.5501300238
  X         1.4569097329       -0.2048713019       -4.1429571599
  X        -0.9195573943       -1.4920574692        2.3783390595
  X        -1.5654857875        4.2749237180        1.1085343640
  X         1.0396927344       -3.2039962172        0.1952199702
  X         4.6345926587        0.6180640493        3.3989126688
  X         0.9136997353        3.8770297976       -1.4466849766
  X         1.1570655006       -0.2486996413       -4.7466480566
  X         0.5281105116       -3.5796069837        0.3813896876
  X        -3.0087327271       -0.0683412754        1.0072831407
  X         1.0211616911        0.3353926678       -4.2313312125
  X        -0.4497832027       -1.9534972796        2.5965717407
  X         0.4151059776       -3.0418318712        0.4277359897
  X        -0.4022366980       -1.9426734615        1.9270398937
  X         1.4541684443        4.0249822240       -0.9144852215
  X         3.5700185458        2.9922616804        3.1208152103
  X         0.7846897693        4.0661936837       -0.8087115479
  X         3.3721454850        1.1797843323       -1.1064842720
  X        -0.2053606399       -1.4878542161        2.4000560554
  X         0.9747666703        3.5598997526       -0.8595793493
  X         3.0971664552        1.9038406879       -1.0163701421
  X         0.0802755723       -0.0020653067       -0.9193648289
  X         2.7379617237        1.3682391714       -1.2495053677
  X         1.5587436723       -0.2225858711        3.5234211358
  X        -1.4045593389        2.1154335449        1.0135995221
  X        -0.1051722493        0.6272260564       -1.0122396410
  X        -1.5864778920        1.4710684099        1.1193777083
  X         1.9799522190       -0.3634750165        3.1913384817
  X         0.5617156894        0.6449562583       -0.9170539127
  X        -1.1298887359        1.6330219958        1.3848745269
  X         1.3957219548       -0.5185021154        2.9226951720
  X         2.8526515795        1.3507705393       -0.7126694496
  X         0.0240287275        0.5419689237       -0.4993248847
  X        -1.0395312185        1.4945749845        0.7358922774
  X         1.7048492620        0.1940430253        2.9914668822
  X         2.1358926080        2.4558977477        1.7957248853
  X         1.9532312021        1.9750067908        1.9956912820
  X         1.4687366814        2.2954072986        1.6688015345
  X         2.0958219453        1.9301705353        1.3364999153
