     224
 Particles+Wannier centers. Iteration:1_3050
  O         1.2830552509        0.2900841473        2.7138553714
  H         1.9349657335        0.8640357149        2.2227309947
  H         0.4122671332        0.7038299894        2.8317499123
  O         1.3342906720        0.5165903588       -4.5313746760
  H         1.4512523017        0.6024232275        4.6489536917
  H         0.9967838904        1.3897769077       -4.2218291603
  O        -3.3981830635       -4.3850329149        4.8536371281
  H        -4.1763559671       -4.3507511657        4.1992006294
  H        -3.3661329551       -3.5160033497       -4.7794772835
  O        -4.5444955245       -0.6689760380        2.6832075412
  H        -3.6098516886       -0.7672394882        2.9191398264
  H        -4.8156457203        0.0403734296        3.2471026357
  O         0.2179124301        3.0298288544       -4.1138779765
  H         0.8232422312        3.8319758979       -4.0748880962
  H        -0.1375833402        3.1192311262       -5.0269563213
  O         0.1732597903       -2.7357746710        3.9916940396
  H        -0.3851772160       -2.2956728073        3.3778713790
  H        -0.1646237075       -3.7360518745        4.0223505629
  O        -3.5463143092       -3.4795480203        1.2502545913
  H        -4.5161895379       -3.4646341780        1.6124205063
  H        -3.6440126399       -3.5326464985        0.2182236337
  O        -0.1592185644       -0.6228371953       -0.3706645625
  H        -0.3662550993       -0.9254917802       -1.2796111879
  H         0.8102073932       -0.6608942823       -0.2863291892
  O        -0.7740560744        4.8228635752        3.9500968231
  H        -0.9497163835        4.7790706013        2.9748556306
  H        -1.6501398683        5.0344502639        4.3095777746
  O         2.8297306846       -2.4993613926       -5.0249615179
  H         1.9741680962       -2.2315129784        4.7348252694
  H         3.3579177463       -1.7865553985       -4.4972696403
  O        -1.8832742404       -1.5302120117        2.3772851212
  H        -2.4504635877       -2.2076363083        1.8962367114
  H        -1.0835254705       -1.3207899030        1.8517366169
  O         2.2175058374       -1.9267511222        0.6096627082
  H         3.1491140714       -1.7435753760        0.3113294995
  H         2.1987886900       -1.6977869015        1.5428801030
  O        -1.9270431048        0.9801422364        4.1093967054
  H        -1.8987040688        0.0551917813        4.4207674710
  H        -2.0866372277        1.0430966457        3.1018393956
  O        -3.3402873278        0.9012551714       -2.8374017639
  H        -3.2262917193        1.7566938855       -3.3564073992
  H        -3.2789683997        1.2214983593       -1.9206305845
  O        -4.5550127051        1.4169479514        4.4382379698
  H        -3.5409991237        1.5043276370        4.4162826729
  H        -4.9935941321        2.2875487264        4.4487863962
  O        -3.0931111317       -1.8076887031       -3.6579418947
  H        -2.1655618041       -1.6157085294       -3.4193169616
  H        -3.5817331624       -0.9839273810       -3.4675392498
  O        -1.6412678882        1.7818513510        1.2952900463
  H        -1.5456422154        2.7026116725        1.0334399112
  H        -1.2306755059        1.3094195300        0.5623092353
  O         3.4158048957        1.3934528085        1.6071545517
  H         4.2449192705        1.0059173705        1.9492846608
  H         3.5517960605        1.3933331218        0.6725204117
  O        -3.8600966212        4.1356411965       -2.8618667166
  H        -2.9283475138        4.1046972652       -2.4858947552
  H        -3.8549275691        4.5488662207       -3.7679650671
  O         3.9142171037       -0.0779950987       -3.6283353078
  H         3.0142962742        0.2310064799       -3.8171583398
  H         4.4491980939        0.4628985946       -4.2684330862
  O        -0.0915449442       -3.9356479545       -0.2940631256
  H         0.5867599956       -4.1407167653       -0.9433854653
  H         0.0533254837       -2.9668198004       -0.0969819128
  O        -3.8430192142       -3.6167965782       -1.3973313564
  H        -3.4451302633       -2.9744085024       -2.0039886564
  H        -3.7271507408       -4.5064956522       -1.8534271362
  O         5.0083293707       -0.8544086707       -0.3881607389
  H        -4.5226040116       -0.9089604659        0.4438654685
  H        -4.8859532949       -1.6699568952       -0.8721281803
  O        -1.1776862072        3.5433322849       -1.8893525357
  H        -0.4522458927        3.7810434241       -1.2129042824
  H        -0.6420015271        3.0095958892       -2.5865249697
  O        -0.3986964438       -1.7663505249       -3.6101536396
  H        -0.3070810760       -2.1912501028       -4.4697579333
  H         0.2210770400       -1.0066241483       -3.7381500220
  O         1.3492556284        3.0836684030       -0.8070952068
  H         1.9106491248        2.3503668886       -1.0308196349
  H         1.8810287684        3.7945323658       -0.3543861364
  O         3.7018128124        3.5903180301        4.0818328313
  H         2.9738467849        3.5797195168        4.7664123134
  H         3.3330787247        3.1309664206        3.2875246645
  O         2.9392266831       -4.4731878184       -0.5421300497
  H         2.6431072487       -3.8286340096        0.0571933208
  H         3.9289275178       -4.3961165705       -0.4382964790
  O         4.6356691142       -3.1240124089        3.0168202601
  H         4.9629190441       -2.1517678851        3.1557917449
  H         3.7722036167       -3.1976929908        3.4682887502
  O         4.0365858119        1.7010129234       -1.2270432669
  H         4.1773627652        0.9254681308       -1.7823112429
  H         4.4893445697        2.4217531101       -1.7789193696
  O         2.3184354894       -5.0224487051       -3.8384552769
  H         2.7960445534       -4.9272770714       -3.0284105270
  H         2.4953050778       -4.1998034722       -4.2952761512
  O        -1.4880828007        4.7409366830        1.3938843958
  H        -0.8953410047       -4.9674848577        0.7101325664
  H        -2.3395504177       -4.9326558365        1.3231263681
  X        -3.3942566377       -3.9303226247       -5.0204570772
  X        -3.4823534278       -4.6046081464       -5.0154895906
  X        -3.1928808682       -2.0281838469       -3.4406722421
  X        -3.7921013615       -4.3555257494        4.5226610266
  X        -3.8359621067        4.3369820464       -3.3252978688
  X        -3.7709363688       -4.0566260431       -1.6200782812
  X        -3.1201531205       -4.4304750999        4.6957341084
  X        -3.1093892623       -1.8831576937       -3.9639267055
  X        -3.6245847500       -3.2877426009       -1.7052613391
  X        -3.3446249965       -1.3793515784       -3.5642261925
  X        -3.9941968890        4.3573187372       -2.6730314109
  X        -4.1450818876       -3.5578016518       -1.4050611481
  X        -3.3797786475        4.1293556105       -2.7001021723
  X        -2.6284826235       -1.6950557737       -3.5359753881
  X        -3.6994890879       -3.6089523926       -1.0800392491
  X        -3.9680972593        3.8470768633       -2.8662913294
  X         4.8318145753       -3.3144834267        3.1870195036
  X         2.4104379152       -4.5985022448       -4.0700164149
  X         2.9972668355       -2.5610995924        4.8113042220
  X        -3.6008388255       -3.4947316756        0.7533558143
  X        -0.7145326478       -1.6498464102       -3.5817106968
  X        -3.4133167307       -3.7619804636        1.3353715213
  X         2.4492413425        4.8373612315       -4.0009858861
  X        -3.6269122912        0.8021910483       -2.8837998412
  X         4.6323730467       -3.1760790068        2.6769967946
  X         2.5744012472       -4.9671958241       -3.4035000887
  X        -4.0296365983       -3.4721645182        1.4096494895
  X         4.7784187784       -2.6496254279        3.1000450820
  X        -1.2321402306        4.9217454806        4.1307083799
  X        -3.2784574769        1.3502411949       -3.1038365645
  X        -3.3913795968       -3.1865725211        1.3393255067
  X         3.0680170030       -2.1270121283       -4.7653748147
  X         2.7729479638       -2.7542657942       -4.8298942165
  X        -0.3548420218       -1.9838081556       -4.0444475330
  X        -3.0983871509        0.7214650330       -2.8913696056
  X        -0.2857580883       -1.9417530262       -3.3909977694
  X         2.0065735453       -5.0466352152       -3.7741755133
  X         4.1786414258       -3.1532017559        3.2267652601
  X         3.9182289684       -0.3919511655       -3.7361413102
  X        -3.3073793907        1.0758101273       -2.3493372255
  X        -1.3019039347        3.8046852731       -2.0328184039
  X        -4.6390407539        1.2736208910        4.7101223144
  X         0.0107617023       -3.2079973826        3.9914321122
  X         2.3894255837       -2.3241370423        4.9206568346
  X        -0.5939280466       -4.9811073875        3.9971873492
  X         4.1839214225        0.2032144112       -3.9593083722
  X        -4.9673430382       -1.2932443008       -0.6401431485
  X        -0.0837238899       -1.3680236983       -3.6740445186
  X        -0.6656530265        4.5438085904        4.0662297319
  X        -4.7578145328        1.8757281893        4.4395540451
  X         3.9916071360        0.0006537723       -3.3294937048
  X         3.4601172128       -4.4299254905       -0.4811372091
  X         3.9497194491        3.3973652012        4.1900134910
  X        -4.0606050661        1.4864644134        4.4336169549
  X        -4.6949345219       -0.9525938293        2.7911443133
  X         0.0898480418       -2.6085757810        4.2895034202
  X        -1.3731505686        3.3517550477       -1.7474712006
  X         0.4808660686       -2.7177549951        3.9095230583
  X        -2.1461600527       -1.8644860563        2.1195777904
  X        -1.9269833458        4.9653891565        1.3444304086
  X         2.8719547746       -4.3800983578       -0.8288701582
  X        -4.6387198348        1.2633867622        4.1566246586
  X        -0.8642981527        4.7962868065        3.4717492297
  X        -0.9090088361        3.2728876099       -2.2278756225
  X         3.4537517406        0.0879590551       -3.7234654159
  X        -0.3578745517       -3.9562587045       -0.4302599706
  X        -0.0174159207        3.0569025394       -3.8920106225
  X         3.7418543202        3.8781325323        4.0096437566
  X        -5.0103828968       -0.6189192483       -0.5504459573
  X         3.3140220546        3.5652110413        4.4271791484
  X        -4.0608505567       -0.7072653445        2.8109655077
  X        -1.9214173184        0.4824060230        4.2469117290
  X        -4.7862852261       -0.8953241019        0.0387639499
  X        -4.5650067665       -0.5874675975        2.3793019082
  X         2.7858262084       -4.1322095783       -0.2211081435
  X        -1.7699802858       -1.6691069097        2.6351911421
  X        -0.1189402702       -2.5093669984        3.6558527458
  X         0.5222815772        3.4342754540       -4.0967849356
  X         0.2737458679       -4.0394929956       -0.6347675512
  X        -1.3635584681        4.8060635652        1.7077297981
  X        -1.6546334820        1.0990948293        4.1613858015
  X        -0.8118162361        3.6765656245       -1.5448736872
  X        -2.0551115125       -1.2646389028        2.4132517987
  X         2.8508244856       -4.7644807258       -0.4377380943
  X         0.0307627607        3.0725183164       -4.5844878517
  X        -1.2014072072        4.9440791291        1.0520190395
  X        -0.0501452428       -4.1153387254       -0.0251973146
  X         4.7100888470       -0.9051289675       -0.2862572493
  X        -4.6907932350       -0.2979575092        2.9692185901
  X         4.2719737721        2.0775800910       -1.5130469279
  X        -2.2076761623        1.1155267586        4.2434652927
  X        -0.0084712405       -3.4358396097       -0.1914907911
  X         0.4114212782        2.7540175070       -4.1137789055
  X         3.4930661911        3.3471434702        3.6695082162
  X        -1.5253922600        4.4301775737        1.3194614918
  X         4.1144328881        1.2989398052       -1.5130256239
  X        -1.4694268064       -1.4292121037        2.0864846939
  X        -2.0092608039        0.9756537956        3.6027603903
  X         4.1777651397        1.6730295581       -0.9464036830
  X         1.1165158355        0.2878203489       -4.4701947882
  X         1.6374583674        0.4826467384       -4.4046964356
  X         1.1632591628        0.9603390397       -4.3841426190
  X         2.7019864038       -1.8300836179        0.4697817012
  X        -0.2530564328       -0.7818012722       -0.8568012604
  X         3.7225991105        1.7627757029       -1.2350160233
  X         1.3876490682        0.5742840501       -5.0163419510
  X         2.1803240821       -2.2443103724        0.5857435026
  X         2.2220171892       -1.8058213335        1.1050900359
  X         1.2603093721        3.2086177000       -1.0698798806
  X        -0.2627630695       -0.8496011513       -0.1785006611
  X        -1.9386239341        1.7169169627        1.2894382902
  X        -0.2546229906       -0.3298120744       -0.3426576941
  X         2.0237627822       -1.7269923056        0.4540021479
  X         1.6445096512        3.4341054062       -0.5697181517
  X        -1.5843826071        2.2602635760        1.1569325104
  X         1.6573792018        2.7004421116       -0.9131792332
  X        -1.4797769109        1.7235366388        1.5636226741
  X         0.3488760753       -0.6380392652       -0.3500613353
  X         3.8510411989        1.1807270150        1.7841187065
  X        -1.4216095478        1.5343715196        0.9055243680
  X         1.1322952365        2.9919806255       -0.6118246747
  X         3.4199445828        1.6881190277        1.6971637637
  X         3.4861464395        1.3827000590        1.1202233644
  X         1.2464138846        0.0209971976        2.5663484016
  X         3.1492470367        1.2046330965        1.6953703122
  X         1.3912716895        0.2889434841        3.0141617421
  X         0.8237770851        0.5267010989        2.7540930654
  X         1.5738963573        0.5983845215        2.4608738570
