     224
 Particles+Wannier centers. Iteration:1_2600
  O         1.1737878288       -0.0420813221        2.5862683339
  H         2.1281463795        0.1334256490        2.3951299207
  H         0.6330064049        0.3492864040        1.8759515315
  O         1.0167514918        0.5065287624       -4.9114532296
  H         0.9929506399        0.4034118973        4.2156027166
  H         0.8336099912        1.4136553452       -4.6820318328
  O        -3.7224912703       -4.3904881983       -5.0198240205
  H        -4.4086643733       -4.6615415164        4.4424925209
  H        -4.0196412396       -3.5454466837       -4.6572166524
  O        -4.0963351178       -0.7306775205        2.1458643657
  H        -3.0748536942       -0.7696826817        1.9883188289
  H        -4.3363125743        0.1448494258        2.5157359161
  O         0.5272846022        3.3299086303       -4.2759092872
  H         1.2212123840        3.9276806200       -3.9194317054
  H        -0.1455279104        3.8261739248       -4.8147452918
  O         0.3420905713       -2.7427296233        3.8376755443
  H        -0.2072534699       -2.2608095302        3.0847254196
  H        -0.1837993141       -3.5605040486        3.9279864644
  O        -3.4825955661       -4.0235569887        1.3084836033
  H        -4.2332830817       -3.6163223224        1.8316334714
  H        -3.7497661036       -3.8036245124        0.3635539233
  O         0.4068734161        0.4163447623       -0.1251795025
  H         1.0015386571        1.1515986192       -0.4615381197
  H         0.8792467810       -0.4435882156       -0.1671601355
  O        -1.0934032060        4.8503441150        4.1719538490
  H        -0.9796106278        4.7467880033        3.1788671849
  H        -2.0976135825        4.9735654271        4.3530866742
  O         3.0730874701       -3.0786322961       -4.7871930363
  H         2.2128072631       -2.8703724849        4.7470170907
  H         3.4453931616       -2.2035344096       -4.5167812125
  O        -1.3781348322       -2.3345142958        1.6995693222
  H        -2.0652140635       -2.9827639001        1.7369835436
  H        -0.8033286095       -2.5526859396        0.9282598465
  O         1.8829040141       -2.7283109180        0.7478264971
  H         2.7902168674       -2.3175544652        0.7201992152
  H         1.6149607289       -2.6520768951        1.6640292039
  O        -1.9186806693        1.2274699859        4.2579414832
  H        -1.5095228829        0.5553330346        4.8164437369
  H        -1.7459956220        0.9405089464        3.2948732071
  O        -3.4979137175        1.0316750245       -2.7264824827
  H        -3.4474870536        1.4456797255       -3.6016768258
  H        -2.6678346310        1.4121331980       -2.3581186361
  O        -4.6749823017        1.4142101658        4.0481560492
  H        -3.7091708320        1.3686042153        4.1203105720
  H        -4.9718270196        2.3937581321        4.0194125913
  O        -3.5773026057       -1.7803185302       -3.9530038827
  H        -2.5538984400       -1.5819227562       -3.9783382757
  H        -3.9630996572       -0.9576911641       -3.6333765266
  O        -1.8159294188        1.3736330918        1.1233952569
  H        -1.6682092634        2.3377692524        1.2697961713
  H        -0.9399683515        0.9747153144        0.8804104536
  O         3.4274070006        1.8870251786        1.6439586295
  H         4.0756998270        1.5507958603        2.3123094513
  H         3.9105666631        2.0080660416        0.7398151492
  O        -3.8595817739        4.0126200499       -2.7488596199
  H        -3.0296478465        3.4736343914       -2.7142203193
  H        -3.8492623498        4.5454874862       -3.5760279463
  O         3.7359162238       -0.3626412616       -4.3492449798
  H         2.8187105214        0.0311972188       -4.4666635036
  H         4.3013707704        0.1590423198       -4.9594662911
  O        -0.0801550266       -4.3605077920       -0.0839644255
  H         0.0159768163       -4.6974778702       -0.9929226176
  H         0.8624712218       -3.9976304613        0.1632484658
  O        -4.5345332297       -3.7944035500       -1.4753593838
  H        -4.2483478697       -3.1455748944       -2.1951725457
  H        -4.2328704378       -4.6866229695       -1.8031778898
  O         4.2910068727       -1.2532857561       -0.0731595882
  H         4.9291615137       -0.9046221587        0.5982329246
  H         4.8708000632       -1.5838230469       -0.8719918220
  O        -1.2517389336        2.5111636885       -2.2235761065
  H        -0.7615252929        2.0994438365       -1.4679764975
  H        -0.4766925915        2.7973407801       -2.8213232577
  O        -0.9672579041       -1.3939194008       -4.0555431195
  H        -0.5723771422       -1.9983067229       -4.6802846971
  H        -0.2382315996       -0.7648228548       -3.9902291072
  O         1.5827651924        2.7554002268       -0.9546660466
  H         2.5073556343        2.5481008288       -0.9790903063
  H         1.4665044419        3.2765862106       -0.1460729352
  O         4.3938423048        3.9801323107        3.9077031746
  H         3.8519774411        4.1180511904        4.7943604253
  H         3.7614670052        3.9043016905        3.1900203697
  O         3.1321757370       -5.0013674752       -0.8905966313
  H         3.4741161713       -5.0042042308       -0.0055244401
  H         3.8145313791       -4.4691188665       -1.2750157797
  O         4.6013907977       -2.9959146007        2.7421851720
  H        -4.8660480346       -2.1723588091        2.7548390179
  H         4.1322713023       -3.0409651952        3.6762234285
  O         4.2689161658        1.8229523621       -1.1165948640
  H         4.0575479484        0.9281196463       -1.4061021834
  H         4.9825580807        2.1666930235       -1.7241524740
  O         3.1495151719        4.4673819996       -3.9411891141
  H         3.5382225393        4.2082389573       -3.1052763945
  H         3.0837090778       -4.6581352791       -3.8262526659
  O        -1.7165344701        4.1871023561        1.3854982399
  H        -1.1336476296        4.7757381036        0.7782467181
  H        -2.6089079413        4.6129118473        1.5256836475
  X        -3.8797794396       -3.9522620755       -4.8455266941
  X        -3.7478041730       -4.6073789853       -4.7687045046
  X        -3.4371736421       -4.3677617302        4.9313824593
  X        -3.6377603351       -2.0082790136       -3.7211491914
  X        -4.0800845721       -4.5159520742        4.7495325907
  X        -4.3831282480       -3.4642711180       -1.8497730728
  X        -3.8405941333        4.2703787089       -3.1764821523
  X        -3.6805655537       -1.8417415805       -4.2421080035
  X        -3.0900868576       -1.6812461122       -3.9609772709
  X        -4.3784234841       -4.2310413902       -1.6449884594
  X        -3.7791793578       -1.3423207846       -3.7892970151
  X        -4.3794518541       -3.7244492665       -1.1959402697
  X        -3.8545333808        4.2393557188       -2.5023737715
  X        -4.0981468283        3.8185062782       -2.7620804437
  X        -4.8570977775       -3.8040494898       -1.4798721816
  X        -3.4251221846        3.7464146214       -2.7455049152
  X         3.2837357590       -3.1700869141       -5.0187328293
  X         3.1266849790        4.9597557187       -3.8765031988
  X         3.0098852933       -3.2817705256       -4.5367835671
  X         3.2396286106       -2.6352340390       -4.6421258168
  X        -1.6019659944        4.8981669722        4.2430205615
  X        -0.9961748445       -1.5336060429       -3.7953358660
  X         3.3545147246        4.3911093791       -4.2206073225
  X         4.8056732387       -3.2561363397        2.6856634359
  X        -3.8567294630       -3.8235763138        1.5643064382
  X        -3.6179491337       -3.9124761842        0.8262286496
  X         3.3648030510        4.3284806502       -3.5059608248
  X        -3.4680034073        1.2522321016       -3.1996492943
  X        -3.2086464757       -3.8487398166        1.3769478515
  X         2.6375156721       -2.9617735518        5.0443896866
  X         4.1215576905        4.0399473104        4.3137653124
  X        -3.4734437726       -4.3508489436        1.3470845762
  X        -0.7676382094       -1.7119096016       -4.3816281817
  X        -3.4753512855        0.7199527202       -2.7681198789
  X         4.3917382354       -3.0189348448        3.2159517079
  X        -1.2444346663       -1.2646311850       -4.1838355243
  X        -0.9653264817       -4.9571648248        4.2304696596
  X         2.8508085279        4.3654167170       -3.9332185654
  X         4.9117596931       -2.5846237020        2.7706371999
  X        -3.7431201022        1.1672374675       -2.5820652399
  X        -0.9716490351        4.5864420557        4.3374414634
  X         3.7193521733       -0.6853016188       -4.4469397329
  X        -3.0753853473        1.2162501973       -2.5341999981
  X         4.5778066223        4.2401957304        3.8674707949
  X         3.4811004235       -4.7169889608       -1.0982116016
  X         4.5450596029        3.6679248994        3.9274862225
  X         4.3840996953       -2.9298173837        2.5432117502
  X        -0.6035523893       -1.0576258686       -4.0200664672
  X         3.8271193478       -0.2966399703       -4.0658209228
  X        -1.0474559959        4.7909596661        3.6683615555
  X         0.0763248599       -3.1710990586        3.8731685715
  X         4.0199534124       -0.0965398971       -4.6747748949
  X        -4.8090188919        1.2675928844        4.3018995169
  X         4.6037573187       -1.4229917168       -0.4801033532
  X        -1.4341900253        2.2756511160       -2.3613116682
  X        -1.7181999828       -2.6812061198        1.7145441058
  X         2.8598119914       -4.8586313643       -0.8906774194
  X        -4.8000145171        1.8988419283        4.0385398728
  X         3.1739387141        4.8116146232       -1.0022794599
  X         0.2049187564        3.5962866466       -4.5430199022
  X        -4.1874438964       -0.9756503980        2.3596462019
  X         4.0459597365        3.9492809672        3.5319851452
  X         0.2850753751       -2.5864250367        4.1143928963
  X        -4.1842947339        1.4097932584        4.0879232960
  X         0.6460825988       -2.8065937877        3.7516297765
  X         3.2745448295       -0.1575632741       -4.4165138751
  X        -2.2545825444        1.2096465880        4.2940747336
  X        -2.1682831648        4.3962602019        1.4332870479
  X         0.8737118433        3.6586535055       -4.1067032966
  X        -0.0219892732       -4.5361018649       -0.5684702124
  X        -1.3934576159        2.7697566499       -2.1284155126
  X         3.3152171257       -5.0049220104       -0.4085601972
  X        -4.2019581190       -0.2753308874        2.3386888459
  X        -0.8699475046        2.6402788590       -2.5221885739
  X         0.3598200403        3.2274943791       -4.0038133158
  X        -1.1797476943       -2.3554682722        1.9746651593
  X        -4.7423125177        1.2921269096        3.7455988050
  X        -3.5786080608       -0.7328138092        2.0818472186
  X        -1.7049288295        0.8632559345        4.5438289852
  X         4.6294517957        1.9920408277       -1.4292135237
  X         4.1342611921       -1.5085931057        0.0506889289
  X        -1.5190347933       -2.0592418389        1.6442355120
  X         0.0850239979       -2.5031999484        3.4681216420
  X        -0.2563817406       -4.1098426511       -0.0972620949
  X        -1.7755038645        1.4877366859        4.2999959447
  X         4.6280150216       -1.0816394485        0.2595956141
  X        -1.7327009733        3.8695858938        1.2806771777
  X        -1.4599310595        4.4802695946        1.0714705153
  X         0.6621689082        3.1046206212       -4.4484709755
  X        -4.2285239849       -0.7402112020        1.8511643329
  X        -0.1838763304       -4.6189944104        0.1138052831
  X        -1.0888423367       -2.4561078411        1.2928070824
  X        -0.9992908923        2.3019925335       -1.8243810708
  X         0.3832261695       -4.2105098676        0.0353696034
  X         4.1362172885       -1.0118500354       -0.1826571066
  X         4.1699723521        1.3490787203       -1.2783134513
  X        -1.8216596245        1.0628491889        3.7718138722
  X         3.9928871994        1.9940376960       -1.1652180928
  X        -1.5753963939        4.2359258411        1.6734889100
  X         2.3456109323       -2.5371285358        0.7437138496
  X         0.7836730924        0.3190149653       -4.7784037703
  X         4.3691164378        1.8102941480       -0.8108038057
  X         1.8693509323       -3.0502294593        0.6669600901
  X         1.3303578721        0.4488076881       -4.8246686680
  X         1.7509626936       -2.6875762664        1.2414100698
  X         0.9182762422        0.9834466971       -4.8089508416
  X         1.6960788171       -2.5350788030        0.5971613023
  X         0.9938283742        0.4762601992        4.7006713689
  X        -1.9974510347        1.3336393009        0.8915702229
  X         1.4995734948        2.9172689055       -1.1952920677
  X        -1.8851224761        1.2509977538        1.4191741621
  X        -1.7212388686        1.8615371475        1.1928940599
  X         2.0638891644        2.6597089382       -0.9573685016
  X         1.5304776083        3.0324505472       -0.5205614665
  X         3.7848736303        1.7061836504        1.9786861396
  X        -1.3546230665        1.1867777469        1.0089905047
  X         3.6880914189        1.9370454127        1.2018670556
  X         3.3548667211        2.1707855808        1.7423918688
  X         1.4291958927        2.4515819544       -0.8864459439
  X         0.6666737821       -0.0287442022       -0.1542053837
  X         1.1353504764       -0.3423286416        2.5590751768
  X         0.1670921996        0.4054148990       -0.3089804724
  X         3.2105933319        1.6635425894        1.6117436954
  X         1.1058787346        0.1025259231        2.8870440805
  X         0.3453043411        0.4768635526        0.2025588165
  X         1.6674308467        0.0582186145        2.4712873540
  X         0.7219031998        0.7639594304       -0.2910808567
  X         0.9059673233        0.1788250529        2.2177610241
