     224
 Particles+Wannier centers. Iteration:1_2450
  O         1.3903772841       -0.0138544758        2.5360577355
  H         2.0712643370        0.6276433202        2.3642802983
  H         0.8603902366        0.0376237749        1.7067506381
  O         1.2904394189        0.7273625546       -4.7692135056
  H         0.9911934786        0.5651378704        4.3787311699
  H         0.9472009770        1.5592178478       -4.4547732005
  O        -3.4929185878       -4.5848642457       -5.0067031012
  H        -4.1478207789       -4.9008019259        4.4456274577
  H        -3.6135115514       -3.6287675914       -4.6782606592
  O        -4.0336092444       -0.6399849012        1.9141930937
  H        -3.2060039889       -0.2476907942        1.4690831306
  H        -4.2626713987       -0.0112732516        2.6161240585
  O         0.3647236924        3.6309167043       -4.0001136258
  H         1.2073700881        4.0985156488       -3.7924469958
  H        -0.0146249504        4.1166850970       -4.7728136568
  O         0.5379746785       -2.6557026786        4.0638063318
  H         0.5748329930       -2.2458209214        3.1799254783
  H         0.0019747476       -3.4710905243        4.0711880342
  O        -3.9197321184       -4.1853507366        0.9684411557
  H        -4.7027740313       -3.9529944172        1.5003839263
  H        -4.0640344929       -3.6730195755        0.1278150535
  O         0.4836430535        0.3800627285       -0.1051559836
  H         0.8487347068        1.2757882628       -0.1383825322
  H         0.9740980516       -0.1598140278       -0.7626874776
  O        -0.9631343570        4.9039533223        4.0526863005
  H        -1.1205994937        4.6006900404        3.1097221621
  H        -1.8004521391       -4.9411982294        4.5077987943
  O         3.1576099497       -3.0681725561       -4.8020957323
  H         2.2558696698       -2.7408600650        5.0473995691
  H         3.7009753419       -2.2664740922       -4.6027134645
  O        -1.1761676462       -2.1202525282        1.5734286271
  H        -1.9794952491       -2.4177161492        1.9651664892
  H        -0.8342022977       -2.7930452588        0.9257436032
  O         2.0853682441       -2.8152428257        1.0778103678
  H         2.5547049025       -2.3308484413        0.3630169553
  H         2.0346280740       -2.1972232487        1.8153614298
  O        -1.9300509911        1.0824070347        4.3356778143
  H        -1.6918753488        0.3929282631        3.7143646668
  H        -1.6357418224        1.9104880499        3.8876632835
  O        -3.8567128708        0.6358206770       -2.9986569161
  H        -4.1606337419        1.2345508703       -3.6954162934
  H        -2.9369335815        0.9036111674       -2.8405725214
  O        -4.5593423827        1.1597303142        3.7186540577
  H        -3.6387854071        1.2004939327        4.1189051947
  H        -5.0023180394        2.0657998224        3.7486446532
  O        -3.6409322346       -2.0760046613       -3.7450073966
  H        -2.7907137031       -1.6783064769       -3.8938348950
  H        -4.2080074745       -1.3002966024       -3.7078787789
  O        -1.9066024194        1.3731150257        1.5376496028
  H        -1.9263215379        2.3608329083        1.5799776559
  H        -1.0635621155        1.1426583051        1.0737976959
  O         3.4092392641        1.9335708631        1.8815560859
  H         4.1675932619        1.3493919381        1.6382732132
  H         3.2173350092        2.4815115123        1.0410137913
  O        -3.8226694955        3.9640658702       -2.6863545831
  H        -3.0240106395        3.4205250583       -2.4198060803
  H        -3.6640503536        4.3229990464       -3.6024290284
  O         3.7908920283       -0.5001218668       -4.8394115124
  H         2.9634710341        0.0236734231       -4.7409796012
  H         4.3210326363        0.1527386436        4.6998972690
  O         0.0557522800       -4.3128409761       -0.0683195561
  H         0.0852374647       -4.1386316663       -1.0424587378
  H         0.9109896704       -3.8224811733        0.3224496509
  O        -4.2059330461       -3.4184665303       -1.6529612697
  H        -3.9474676797       -2.8038194409       -2.4171049338
  H        -3.9735733284       -4.3396008417       -1.8814674955
  O         4.0282732138       -1.0034083793       -0.1886210138
  H         4.5962466533       -0.7128836031        0.5348814252
  H         4.5116720045       -1.8656759208       -0.4717955792
  O        -1.3170291585        2.0249936178       -2.3637882814
  H        -0.7002811799        1.8676317336       -1.6050168250
  H        -0.8089396039        2.7108735998       -2.8332267057
  O        -0.9811633053       -1.1865848521       -4.2600041232
  H        -0.3543277816       -1.5811548578       -4.9706195199
  H        -0.7686205386       -0.2491725907       -4.1664116220
  O         1.4135602796        2.7213030486       -0.9228018351
  H         2.2377027031        2.1446236100       -1.1841543225
  H         1.7157379483        3.6636651443       -0.8810867352
  O         4.6418619424        3.6756546483        3.9574108254
  H         4.0926058067        3.8772607633        4.7916711688
  H         4.2029112018        3.9658882291        3.1546458586
  O         3.4646747426        5.0254880476       -1.2044458435
  H         4.2338590200        4.4701221155       -0.9187386242
  H         3.9157147557       -4.1928930280       -1.2329381466
  O         4.4139896485       -3.0627824092        2.8568837776
  H         4.7402612795       -2.1247463415        2.7679766972
  H         3.7756778768       -3.0837178927        3.6153855821
  O         4.0847117398        1.8387583915       -1.3693524321
  H         4.2536092131        0.9030229296       -1.3706373683
  H         4.5430912237        2.0369487079       -2.2021477090
  O         3.1511601444        4.4404974382       -3.8202068446
  H         3.4239848489        4.5018930811       -2.8608279625
  H         2.9722768388       -4.7111906521       -4.1144527341
  O        -1.8545473333        4.2299085635        1.5610643884
  H        -1.3746460363        4.3211034323        0.7193504629
  H        -2.6592863303        4.8522261940        1.4420611630
  X        -3.5768600963       -4.1074575667       -4.8674643338
  X        -3.7096164450       -2.2844103848       -3.9961371101
  X        -3.5381378164       -4.7777754091       -4.7426403016
  X        -3.1904831460       -4.6051668359        4.9546783181
  X        -4.0698817518       -3.1334856714       -2.0156275610
  X        -3.6556765726       -2.2120014034       -3.4248504946
  X        -3.8398685320       -4.7136799117        4.7543193275
  X        -3.2068541910       -1.8731166792       -3.8139486787
  X        -4.0781811788       -3.8881321209       -1.7828747052
  X        -3.9419907975       -1.6824426787       -3.7422761640
  X        -3.7260854479        4.1255599243       -3.1533212405
  X        -4.5297517181       -3.4197211501       -1.6363250746
  X        -4.0614416775       -3.3482332461       -1.3646191908
  X        -3.8286847360        4.2264962349       -2.4950582771
  X        -4.0659457219        3.7732627247       -2.6937801825
  X        -3.3996163933        3.6891522294       -2.5639277841
  X         3.4207089586       -2.6699104566       -4.6773280735
  X         3.1363493119       -3.3047573699       -4.5653854445
  X         3.0669278441        4.9208700646       -3.9507593177
  X         3.2695587255       -3.1529625148        5.0066945920
  X        -3.9943379200       -3.9250124082        0.5455266732
  X        -1.3997340627        5.0190879409        4.2613197025
  X        -3.8665766544        0.3410208960       -3.1198427907
  X         3.3865916542        4.3110672207       -4.0298275349
  X        -1.3021305199       -1.2194203231       -4.3475364577
  X         4.6612133578       -3.2243873051        2.9450543845
  X         3.3029008823        4.4776152678       -3.3482727786
  X        -3.6608751793       -4.0881037031        1.1141295705
  X        -4.0094124719        0.9639194775       -3.3745710788
  X         2.6970347551       -2.8841324749       -4.9085667670
  X        -3.9296160157       -4.4923792711        0.9023194115
  X         4.9017930880        3.8614137570        3.9838226466
  X        -4.3262362183       -4.0682508753        1.2386688410
  X        -3.3787791374        0.7768946980       -2.9295435366
  X         3.6866689724       -4.6121215879       -1.2083814424
  X        -4.0182889273        0.7103792397       -2.7487849779
  X         4.0810755991       -3.0615513631        3.2290916058
  X         2.8580285555        4.3088822614       -3.8123716992
  X        -0.8975644136       -1.3133059227       -4.0018041642
  X         4.5670269006       -2.5640285474        2.8256557841
  X         3.7391405379       -0.7746183481       -4.9928679446
  X        -0.7973313710       -4.9187935352        4.0319973556
  X        -0.6742620247       -1.3602166030       -4.6231328379
  X         4.3475025452        3.7768131048        4.3503261875
  X        -0.8179984727        4.6628215462        4.2335640921
  X         3.4261188667        4.9421013430       -1.5217008416
  X         3.8656460710        4.7398161183       -1.0463748324
  X         4.3875350240        3.8355841983        3.5437080129
  X         4.2874371683       -3.1396737148        2.5824574065
  X        -0.8658417416       -0.6899395392       -4.2249185953
  X         0.1813272871        3.8832907529       -4.3891191117
  X         3.9283329084       -0.5119680375       -4.5635733795
  X         0.3698899656       -2.4347551464        4.2517468095
  X        -1.0608292232        4.7486122989        3.5919402450
  X         4.0590105086       -0.1783359382        4.9719148872
  X         4.6926835296        3.3355087058        3.9306015791
  X         3.2292031172        5.0085033779       -0.9999869642
  X        -4.7559552909        1.6081437911        3.7258754711
  X         0.7903415881        3.8840223596       -3.8923631828
  X         0.8409113780       -2.7258130274        4.1601430009
  X         0.1552606208        3.6483553082       -3.7490451539
  X        -2.2474110119        4.5285300392        1.5015032292
  X        -1.0616466922        2.3755234779       -2.6070325624
  X         0.2651765683       -3.0722745110        4.0422846796
  X        -1.7787358652        1.0493505102        4.6041313158
  X        -3.9754114125       -0.9201961311        2.0335173407
  X         3.3679136900       -0.2431329830       -4.7899252008
  X         4.2804660195       -1.4525364446       -0.3292892134
  X        -4.7423508832        0.9710828309        3.9178588305
  X        -1.6078856861       -2.3026350333        1.7722223110
  X         0.0842372622       -4.2149733085       -0.5901568108
  X        -4.1096954333        1.2022231806        3.9256084915
  X        -1.5897439788        2.1596984690       -2.2576428251
  X         0.4476216516        3.3423726981       -4.0992846210
  X         4.3123186508        1.9516588949       -1.8114196986
  X        -1.3324859314        1.7643321895       -2.5341983160
  X        -2.2695244468        1.0980224451        4.3258984936
  X        -4.1353733630       -0.3232418365        2.2699473664
  X        -1.6598900030        4.3418977822        1.8131801776
  X        -1.7965132163        0.7223824039        4.0046507298
  X         0.5522034447       -2.4676381663        3.5914478626
  X        -0.1920096587       -4.1425553424        0.0391325180
  X        -1.9539090229        3.9133568818        1.5752947871
  X        -4.5233254344        1.0434313505        3.4101548453
  X        -3.6118474377       -0.4416366463        1.6960017912
  X        -1.0240964248       -2.4788778230        1.2419488706
  X        -0.9644385896       -2.1133912981        1.8027845546
  X         0.0704505512       -4.6226236820       -0.0277079733
  X        -4.2799821899       -0.6136112418        1.6954654152
  X         4.0576612926       -0.7990848447       -0.4262062987
  X        -1.7690613091        1.5157590261        4.0950960789
  X        -1.6084157202        4.2816583795        1.1182161720
  X         4.1691253319        1.3457532103       -1.3660019227
  X         4.3164489771       -0.8562401688        0.1916283640
  X        -1.0020350356        1.9456177673       -1.9614571127
  X         4.2338479284        1.9691899930       -1.1375398822
  X         0.4764576415       -4.0849383565        0.1023364431
  X        -1.2434594306       -1.8659344316        1.4230481801
  X         2.2633594201       -3.0310698960        1.1566696214
  X         3.7401616479       -1.0971075850       -0.0775000491
  X         3.7467717661        1.8825598524       -1.4031910186
  X         1.1515487308        0.5147708748       -4.6062563166
  X         2.3200658274       -2.5521051141        0.7069766638
  X         1.7715891490       -2.9048995994        0.9614867936
  X         1.6211455594        0.7296888218       -4.7723397636
  X         1.1094737313        1.1728952318       -4.6243255599
  X         2.0495997310       -2.4812752472        1.4593668213
  X         1.1270327728        0.6715011267        4.8456023065
  X        -2.1459112320        1.2636817906        1.3694233092
  X         1.5837380356        3.2044940669       -0.8968158563
  X        -1.9081215465        1.8775155748        1.5493457435
  X        -1.8655840613        1.2792937627        1.8278618827
  X         1.2064795039        2.6968711787       -1.1410171868
  X         1.8282914198        2.4469229949       -1.0564152468
  X         3.5076939234        2.1265130064        2.0931036096
  X        -1.4581310085        1.2710392005        1.2919252625
  X         3.8070777852        1.6312675362        1.7376128817
  X         3.3196672720        2.2105650966        1.4371753226
  X         1.3333878279        2.6142161932       -0.6220767740
  X         0.7513678839        0.1061087060       -0.4539367863
  X         1.5151950826       -0.3034710495        2.5334036009
  X         0.1910104310        0.4090832987       -0.1984940819
  X         3.1526991898        1.7402723449        1.9279669517
  X         1.2189669461        0.0891073349        2.7977737487
  X         0.5443376571        0.2662732852        0.1950039923
  X         1.7476252516        0.3170902899        2.4424184986
  X         0.6860837531        0.8318804119       -0.1321787822
  X         1.1118938243        0.0254724024        2.1182294900
