     224
 Particles+Wannier centers. Iteration:1_1650
  O         0.8578486758       -0.0456990792        2.5305725867
  H         1.4655016155        0.4127453549        1.9557034944
  H         0.5415155587       -0.8421365690        1.9996299835
  O         1.0644992564        0.1872868992       -4.8372866437
  H         0.9757519678       -0.0376715999        4.3037414097
  H         1.0957651767        1.1188969210       -4.8655798342
  O        -4.0552709453        4.8881050603       -4.8041560059
  H        -4.7684927326        4.7691959627        4.6534428747
  H        -3.9756614262       -4.2448458310       -4.7384758174
  O        -3.5849237686       -0.6697540020        1.6073918606
  H        -2.9959190255        0.0172542300        1.2069848751
  H        -4.0424052200       -0.1509423970        2.2694060297
  O         0.5203676737        2.7910514941       -4.4162825166
  H         1.2506862828        3.3957650352       -4.1888821469
  H        -0.0293336876        3.2672684634        5.0040295057
  O        -0.3021991086       -2.7768666737        4.8045005332
  H        -0.5359168943       -2.3883424954        3.9570535492
  H        -0.5929622519       -3.7212099959        4.6500898941
  O        -3.8175373675       -4.3439015871        1.3847251286
  H        -4.5693134043       -4.0256900205        1.9530057975
  H        -3.3241230631       -3.5991893364        1.0668926217
  O         0.2656412651        0.5167750275       -0.9683919012
  H         1.0018923171        1.0252062044       -1.3630206500
  H         0.1315616448       -0.3376459767       -1.4196996083
  O        -0.9670243144        4.6217844607        4.2692580073
  H        -1.1587196388        4.4319370619        3.3330032005
  H        -1.8687780620        4.4436005273        4.6253903747
  O         2.8362824796       -3.0615472956        4.9291526532
  H         1.8989954942       -2.8249647390        4.8129037805
  H         3.1515317529       -2.3263447863       -4.6019104331
  O        -1.1111664431       -1.8672375524        2.1711395802
  H        -2.0676652963       -1.6463202794        2.0375587643
  H        -0.8527190122       -2.4536051027        1.4615941920
  O         2.1758195497       -2.6547298381        0.3920571465
  H         2.4003507788       -1.8881557340       -0.1822573327
  H         2.9572819917       -2.7997846271        1.0463533709
  O        -2.0062658269        1.2298758429        4.0594594966
  H        -1.9574541554        1.7644631922        3.2258711938
  H        -1.1458599851        0.7950343047        4.1306642741
  O        -3.1857397561        0.2314912651       -3.3649691805
  H        -3.8022905162        0.8736353537       -2.9835954135
  H        -2.7148678959        0.7916626981       -4.0173924110
  O        -4.7159657846        0.5964663294        3.8477706901
  H        -3.7377385784        0.6589934249        3.9863732694
  H         4.9895134808        1.4909172090        3.6962858361
  O        -2.9827229131       -2.4728489146       -4.4147493744
  H        -2.0856758038       -2.5178757571       -4.7626901930
  H        -3.1468024819       -1.4980125853       -4.2089171197
  O        -1.6177603027        1.2885317011        0.8360892569
  H        -1.4279089283        2.2955937928        0.8845368180
  H        -0.8602507805        0.9187008251        0.3521957696
  O         2.7120209095        2.0069336976        1.1740888038
  H         3.1935159775        1.5720461286        0.3755209013
  H         2.0093152534        2.4538683481        0.6878786812
  O        -4.2862671086        3.0794748012       -2.3994798082
  H        -3.4421009366        3.0466082590       -1.8744206000
  H        -4.0484845079        3.5837268270       -3.2080857786
  O         3.6973199358       -0.8013967535       -4.0730214245
  H         2.8232390590       -0.4137343353       -4.1904659211
  H         4.2899040227       -0.5095183309       -4.8268894295
  O        -0.4710377445       -3.7984346191        0.2331842194
  H        -0.8019632947       -3.4045304613       -0.5956915470
  H         0.5303212782       -3.6414279887        0.3756655995
  O        -3.0704533510       -3.1742230095       -1.9279035839
  H        -2.9740829673       -3.0071424919       -2.8968596285
  H        -3.0611495005       -4.1129054256       -1.8755243778
  O        -5.0378100785       -1.5715212591       -0.6014893415
  H        -4.4478736583       -1.4268433888        0.2013915583
  H        -4.5367224853       -2.2100080623       -1.1645281044
  O        -1.3186655729        2.7914683301       -2.3535638966
  H        -0.8807770061        2.0693131082       -1.9087651543
  H        -0.6758650082        2.8360042082       -3.1351409676
  O        -0.0163342559       -1.8874023092       -2.3163478489
  H         0.4267120733       -1.6748993719       -3.1595777550
  H        -0.9810093709       -2.0340508335       -2.4570564211
  O         0.9280043703        3.3324040777       -0.7168317855
  H         1.5971033224        4.0212387252       -0.8602610774
  H         0.1770072395        3.6184278848       -1.3071119228
  O         3.9653519481        3.2710222736        3.4465490217
  H         3.2943724074        3.3623898450        4.1658620688
  H         3.4472784762        3.0397197271        2.6283449404
  O         3.5173338902       -5.0089547715       -1.4506077275
  H         4.4127267195        4.5431879027       -1.3598447830
  H         3.6615159617       -4.1052760794       -1.1406436813
  O         4.1970814421       -2.7962053471        2.5945222016
  H         4.9392701188       -2.2838823210        2.7941006574
  H         3.5333576892       -2.7109983842        3.3754969701
  O         3.8588319742        0.9309571846       -0.9270837220
  H         4.2617593379        0.0423539791       -0.8632266907
  H         4.3260286064        1.5671274414       -1.4925579044
  O         2.6296623014        4.4836584214       -3.9928893131
  H         2.6107797888        4.4375120850       -2.9931133731
  H         2.9088999706       -4.7115097946       -4.2028884218
  O        -1.5803951213        3.9899944307        1.4502030384
  H        -1.0704565859        4.6005755507        0.8694134806
  H        -2.4107397867        4.4989309976        1.5895217241
  X        -4.0259586271       -4.7050140644       -4.7698271537
  X        -2.9656649981       -2.6195169442       -4.1043666409
  X        -3.0235370992       -3.1037916345       -2.4047779814
  X        -3.1894995562       -2.5876418442       -4.6196292278
  X        -4.1408756486        4.7659274209       -4.5181208126
  X        -3.7845283379        4.7928141040       -4.9414016461
  X        -3.0574303714       -1.9806279215       -4.3281340703
  X        -3.0678858787       -3.6880595223       -1.9062967069
  X        -2.5223255899       -2.4853526163       -4.5974342511
  X        -3.3609905706       -3.0674742727       -1.8262714280
  X        -4.4335308791        4.8330189624        4.9593741676
  X        -2.8034936428       -3.0806471370       -1.7909230047
  X        -4.1518367863        3.3355617176       -2.8156110595
  X        -3.3321830266       -0.0150245370       -3.5301075424
  X         2.8597503326       -3.3544021550       -5.0235650831
  X        -4.5030232600        3.2516563752       -2.2362262855
  X        -0.4465698704       -3.2552993996        4.7240234793
  X        -3.8467637292        3.0755769084       -2.1293303977
  X         2.7640835812        4.9524157368       -4.0865350251
  X        -2.9442672988        0.5292627007       -3.7095449237
  X        -1.4362812950        4.5293641384        4.4566780565
  X         3.6121368335       -4.5339593150       -1.2899581453
  X        -4.1848230142       -4.1646703259        1.6811917873
  X        -3.5624965595       -3.9244154299        1.2316357260
  X        -3.5210917115        0.5630799856       -3.1761346567
  X        -4.7797356711       -1.8949939781       -0.8921475100
  X         2.9876769003       -2.7032566445       -4.8791640386
  X         2.9760875151       -3.0071665989        4.6241575897
  X        -4.3451229828        2.7812989114       -2.4764651829
  X         3.8154712337       -0.7105977294       -3.8114351028
  X        -2.9877126179        0.1718112004       -3.1514726580
  X        -3.9411626623       -4.4528203599        1.1408383540
  X        -0.5153554858       -2.6568303732        5.0168150894
  X        -3.6078486526       -4.5298004754        1.5518055998
  X         2.3177451956        4.4270587862       -4.0970564911
  X         0.0104677821       -2.7645973517        4.8494529770
  X         3.9789806456        4.8349878456       -1.3927836189
  X         4.5910086959       -2.5056263600        2.7112375164
  X         3.4505149382       -5.0038417684       -1.7607300088
  X         2.6178341897        4.4645699564       -3.4814956724
  X        -0.5214676222       -1.9566627068       -2.4164762784
  X        -0.9041650999        4.9442129661        4.3120687248
  X         2.3443560596       -2.9373594042        4.8767394149
  X         3.6380176728       -1.1352002832       -4.1298826621
  X         3.9839317271       -0.6424635646       -4.4699653478
  X        -0.7671168549        4.3844171170        4.3833122851
  X         4.8045900480       -1.7096677172       -0.5072261223
  X        -0.4191555148       -2.5777125488        4.3631100286
  X         2.8490537447        4.2922713216       -4.0908703248
  X        -4.7321743807       -1.5156234638       -0.1993347122
  X         4.3159760263       -3.0988061006        2.5932551000
  X         3.8835782589       -2.7417601745        2.9782213069
  X         0.0901897568       -2.1513222070       -2.2137872617
  X        -1.6153215657        2.7285051848       -2.4275367585
  X         3.3063294086        4.9582687458       -1.2595873093
  X         0.1929219366       -1.7820722984       -2.7678884260
  X        -4.8533993898        0.4542394964        4.0986747043
  X         3.2518210629       -0.5861174188       -4.1489480517
  X        -1.0627545597        4.5312301059        3.7875758086
  X         5.0355062786       -1.2826801284       -0.7453960338
  X         4.0600352736       -2.6914906384        2.3193386658
  X        -1.2385840586        3.0470093001       -2.1767907234
  X        -0.6175968117       -3.5931094191       -0.2130906143
  X        -1.0180961684        2.8145135873       -2.7532174127
  X        -4.2214486318        0.6522383353        3.9267513662
  X         0.0057938771       -1.6129494254       -2.1272794132
  X        -4.8912047488        1.0615940920        3.7797628883
  X         4.1039681879        3.5500886852        3.4234219280
  X        -2.2449014376        1.0090443566        4.0169493632
  X        -3.3863180234       -0.8858568319        1.7578445017
  X        -1.0723652398       -2.0212898076        2.4604446231
  X        -0.6047376000       -3.6135740787        0.4623748771
  X        -2.0109809037        4.2416186856        1.5073342842
  X         0.3183300790        2.7791385513       -4.1454638627
  X        -0.5403414333       -4.1190989793        0.2398980517
  X        -4.7262805042        0.4483532190        3.5575889649
  X        -3.8225604413       -0.4065582766        1.9465047155
  X        -2.0274105991        1.4203395163        4.3008372393
  X        -1.0977054008        2.4045172751       -2.1192781158
  X         3.6000416545        3.3114509654        3.8155459973
  X        -3.7967723818       -0.7840829396        1.3768916227
  X         0.8870817524        3.1026938019       -4.3099632301
  X         4.1387675067        3.0026325643        3.5159116830
  X        -1.6005512989       -1.7723458992        2.0927108724
  X        -1.5549365217        1.0003428855        4.0829174172
  X         0.2579978748        3.0324401496       -4.7687910420
  X        -0.9928667231       -2.1764403292        1.8010359368
  X         0.0275186184       -3.7205474167        0.2722405770
  X        -1.6274570778        3.6928936453        1.3109131631
  X        -3.2940387253       -0.3238374265        1.4028805244
  X        -1.3249831576        4.2971087771        1.1493595274
  X         2.1674333315       -2.9028295245        0.2084766737
  X        -1.9717880385        1.5093024554        3.6283591693
  X         0.6394656960        2.5113688281       -4.5346252899
  X         4.1300421903        1.2464483182       -1.2231019750
  X         0.8007511482        0.1106882748       -4.6981205622
  X         2.5720508832       -2.7125392702        0.7143621142
  X        -0.9530594395       -1.6090072270        2.1220876013
  X         3.6914034085        3.1694880440        3.0371063105
  X         1.3515529752        0.0718653534       -4.7301614796
  X        -1.4401063693        4.0083429743        1.7433099346
  X         4.0874162746        0.4969499056       -0.9066001930
  X         2.3023372263       -2.2465287774        0.0995030289
  X         1.0891048757        0.6747751816       -4.8599586236
  X         3.5978438826        0.8914530378       -1.0622533883
  X         1.9118798300       -2.5930001543        0.5525824477
  X         0.5447587297        3.4890981499       -1.0160721263
  X         1.0203563631        0.0738288469        4.7778447611
  X         1.2770405211        3.7003233139       -0.8011400248
  X         3.8276475786        1.0690890172       -0.6110574243
  X        -1.8895182670        1.2308350112        0.6762325780
  X         0.2209593471        0.0837628377       -1.2058251650
  X         1.0400683472        3.0663394340       -0.8324147180
  X        -1.5198399531        1.7896068658        0.8449344724
  X        -1.6111940533        1.1944343667        1.1337816816
  X         0.0093624688        0.6869255570       -1.0363854417
  X         0.8450946564        3.3523136388       -0.4205990603
  X         0.6605293461        0.7613837496       -1.1874824128
  X        -1.2266021277        1.1012227274        0.5942105800
  X         1.0027146334       -0.1428971685        2.8127652953
  X         0.3196557705        0.4734926382       -0.6635503905
  X         0.7176384687       -0.4581532107        2.2535032017
  X         2.8940919365        2.2282264324        1.3394741103
  X         0.6163526650        0.1299650331        2.5549132649
  X         2.9533565811        1.8094231452        0.7970976736
  X         2.3423680210        2.2493246873        0.9212514635
  X         1.1853197447        0.1840033561        2.2284970100
  X         2.5671963807        1.7702850313        1.3279074320
