     224
 Particles+Wannier centers. Iteration:1_1450
  O         1.2022800298        0.0928826496        2.6483869302
  H         1.4086746071        0.8044901365        2.0187797813
  H         0.5740233737       -0.5687813381        2.1717085458
  O         0.8325450995       -0.2005332556       -4.5018035798
  H         1.2038959102       -0.5309501325        4.7514213983
  H         0.9830999387        0.7917628041       -4.4875373734
  O        -4.2286011653        4.4315006251       -4.7631540328
  H        -4.7708702624        4.0954947923        4.5870879766
  H        -4.5670284769       -4.7895961703       -4.5474389575
  O        -3.5321455258       -0.6926108702        1.5491667426
  H        -2.9161307605        0.0691830818        1.3966430618
  H        -4.1243430087       -0.3035706475        2.2997762140
  O         0.7440399298        2.5751443017       -4.3887117906
  H         1.2504850929        3.4424173323       -4.4533238400
  H         0.1224823098        2.5041111662        4.9838264650
  O         0.1993271170       -3.0454582199        4.3310943689
  H        -0.0255503272       -2.5408688671        3.4805020702
  H         0.0055308249       -4.0046513857        4.3098172834
  O        -3.6157034179       -4.0400933535        1.7237795383
  H        -4.3990263421       -4.0149941207        2.4001820982
  H        -3.3284675479       -3.1055740390        1.6588422954
  O         0.2441517136        0.4404214397       -0.8221907939
  H         1.0064769090        0.7159364816       -1.4014255009
  H         0.0350672232       -0.4436289544       -1.2177919656
  O        -0.7040716133        4.4534763503        4.1299915082
  H        -0.9159703353        4.5247169258        3.2150972292
  H        -1.5509650193        4.2307487141        4.5339076858
  O         2.8659984097       -3.1476613217       -4.8871799347
  H         1.9234867545       -3.0029721123        4.9787065307
  H         3.2368128557       -2.3755679014       -4.4078534610
  O        -1.1717104008       -2.0126241577        2.1526240811
  H        -1.9456993779       -1.4052050570        1.8928728846
  H        -0.9716103194       -2.6470446071        1.4206851222
  O         2.2578922347       -2.9285833437        0.5016654871
  H         2.1880853767       -2.0711066439        0.0047553724
  H         2.8041887928       -2.7448239232        1.2897713694
  O        -1.4084024172        1.0872503799        4.1538436401
  H        -1.0001233702        1.0934578578        3.2680029324
  H        -1.0359136416        0.3142946282        4.6114903369
  O        -3.1054027461        0.3842641880       -3.4272588967
  H        -3.9975666997        0.6943899168       -3.1768115579
  H        -2.4644673411        1.0661154060       -3.1760014918
  O        -4.5939530090        0.8036003431        3.7611083730
  H        -3.6778928325        0.9322806423        4.0657118645
  H        -5.0040864485        1.7123624929        3.7638642195
  O        -3.4897847697       -2.5456319694       -4.4505867144
  H        -3.0881808691       -2.5270179614        4.7799294552
  H        -3.4631746305       -1.6113299651       -4.0601225035
  O        -1.5777596867        1.3736712593        1.1663301713
  H        -1.6595072889        2.3550521444        1.1619871465
  H        -1.0129815841        1.1825580119        0.4324619410
  O         1.9371023082        2.4930273886        1.3946977518
  H         2.6677653273        2.0920427372        0.8494329851
  H         1.3753776685        2.9401428374        0.7138167072
  O        -4.5025386788        3.1649710808       -2.2598503821
  H        -3.6475200119        2.8365971175       -1.9544876004
  H        -4.3446324496        3.4842360738       -3.1995999664
  O         4.0348177036       -0.5942781337       -4.0254611697
  H         3.2455523915       -0.0532918902       -3.8716966653
  H         4.4967450103       -0.0319311886       -4.7430338174
  O        -0.1897575257       -3.8727750567        0.2654289319
  H        -0.1200814580       -4.0461662169       -0.6947543047
  H         0.7690617532       -3.5032902475        0.3619389679
  O        -2.7365328934       -3.4851950794       -1.8378843287
  H        -2.9180544388       -3.3964291359       -2.7950349203
  H        -2.7456114592       -4.4025927737       -1.6542945740
  O         4.7591777160       -1.8605595690       -0.7447038322
  H        -4.7210980090       -1.3726930286       -0.1672678889
  H        -4.6652313318       -2.2645602173       -1.3362689261
  O        -1.1639331191        2.2287665067       -2.6277130859
  H        -0.7949343616        1.6982373269       -1.8610411014
  H        -0.3946516660        2.5440372781       -3.1578426385
  O        -0.1779159932       -1.9029491682       -2.2230931193
  H        -0.1315170896       -1.5082087538       -3.1047207081
  H        -1.0307503542       -2.3799639650       -2.2528460135
  O         0.9601264470        3.8621994960       -0.9169001627
  H         1.6792130406        4.4771183207       -1.1772894263
  H         0.4122638819        3.5302792258       -1.6676095500
  O         3.9825052323        3.0279481149        3.4898019777
  H         3.4911909327        3.4289367079        4.2528581096
  H         3.3202499108        2.9627651008        2.7627430408
  O         3.2133204620       -4.7247097590       -1.4918849472
  H         4.1617068949        4.9517915554       -1.3397057317
  H         3.3002518135       -3.9074353462       -1.0431306215
  O         3.7588957757       -2.5900984971        2.6479779452
  H         3.8822902310       -1.6774755541        2.5201140642
  H         3.2321748075       -2.5667398649        3.5237308286
  O         3.4909443673        0.9722515998       -1.2687405349
  H         3.9380461220        0.0718534039       -1.2941470493
  H         4.2220407851        1.5061497056       -1.6780990362
  O         2.8115506239        4.2395284560       -4.4177658882
  H         3.2537360541        4.1185811289       -3.5454316471
  H         2.7755401243       -4.9014911273       -4.4879417299
  O        -1.6086673160        4.2168534576        1.2576771842
  H        -0.9834551582        4.8781543436        0.7952033924
  H        -2.4566847876        4.7205781676        1.3220677871
  X        -3.3073961962       -2.7327537451       -4.2518321121
  X        -3.7842359977       -2.6187437789       -4.4905340123
  X        -3.4682582426       -2.0626912270       -4.2708366829
  X        -4.4205350219        4.8960819792       -4.6605290363
  X        -2.8314121032       -3.4621226740       -2.3335364142
  X        -3.2697096970       -2.5182384185       -4.9117320028
  X        -3.9385126124        4.4653748223       -4.8599739083
  X        -2.9763609377       -3.3553269246       -1.6903956171
  X        -4.2919992987        4.2356363992       -4.4945171192
  X        -2.7428378829       -3.9876646685       -1.7538069307
  X        -2.4399153875       -3.3833842191       -1.8020197310
  X        -4.5187553378        4.2701187742        4.9483621045
  X        -4.4110975418        3.3130823086       -2.7326999259
  X         2.8999548795       -3.4412515657       -4.7370311419
  X        -3.0576688106        0.1137275308       -3.2768053929
  X        -4.0119954232       -4.0216983817        2.0804450246
  X        -4.5739609164        3.4156815594       -2.0921234325
  X         3.0303466160       -2.7566678345       -4.6232632662
  X        -4.9879331275       -2.0698345175       -1.0632986535
  X         2.9963165331       -3.1098690551        4.9195033679
  X        -4.0411715944        2.9956519148       -2.1079435596
  X        -3.1148695061        0.3805322788       -3.7286773648
  X        -3.7383249259       -4.1049204550        1.4589785547
  X         3.9384977755       -0.8798994298       -4.1482118347
  X        -3.4694485253       -3.5463150538        1.7030461673
  X         2.7992515990        4.7256297800       -4.4510084546
  X        -3.5765007734        0.5661885769       -3.2814830191
  X         3.2035066105       -4.6772264702       -1.7953752667
  X        -3.3752113004       -4.2208409411        1.8349313788
  X         2.3888194416       -3.0570744626       -4.9750227994
  X        -4.6962171120        2.9130752834       -2.2681378836
  X        -2.7912848878        0.7379284786       -3.2846867471
  X        -0.6269333742       -2.1437940675       -2.2416446644
  X         3.0456692722        4.1748799793       -3.9635980615
  X         4.2627842247       -0.3108939542       -4.3938901226
  X        -0.6085262229        4.7530321925        4.2339570817
  X         3.6964935349       -4.9404082785       -1.4040480442
  X         0.1006054992       -3.5309500001        4.2835576509
  X         4.2058414670       -0.5694095075       -3.7732997442
  X         2.9993045691        4.1097264908       -4.6660513557
  X         4.5989019375       -1.6384007425       -0.9076792795
  X         3.2634691212       -4.2925362235       -1.2615073229
  X        -5.0160854112       -1.6063898566       -0.4383883898
  X         0.0141572392       -2.9335458229        4.5366767372
  X         0.5370886501       -3.0152588693        4.3940357502
  X        -0.1626288445       -1.7019799005       -2.6859910426
  X         4.0339350381       -2.7287282660        2.6932345359
  X        -1.1606353992        4.3428331371        4.3390785266
  X        -0.1993530091       -1.6473106613       -2.0017083372
  X         2.4969124545        4.1322294998       -4.3848084727
  X         3.6137505232       -0.3051766396       -3.9492170612
  X         4.6313690241       -2.0797823048       -0.5894991391
  X         2.9797473831       -4.9119060608       -1.3470515124
  X        -0.5238605607        4.2096532160        4.1664610251
  X        -4.1177629322        0.8805844051        3.9171741880
  X        -1.3373706198        2.0259386641       -2.8023730281
  X         3.4913761798       -2.5735042233        3.0766978384
  X         0.0947764637       -2.8226037553        3.8843863881
  X         0.0407829579       -2.1099190261       -2.2003491546
  X         3.5495334758       -2.6756802696        2.3942624244
  X        -4.7457666476        0.6400264300        3.9953467306
  X        -0.8231054603        4.4909827070        3.6510386466
  X        -4.5812997335        0.6769333933        3.4523861373
  X        -2.0469551184        4.4671786395        1.2709088193
  X        -1.3014690632        2.4757352249       -2.5043196795
  X        -3.3399965720       -0.9347336153        1.6720996802
  X        -1.2519332459       -2.1730945444        2.4017420001
  X         4.2020969455        3.2415937674        3.4236385106
  X        -0.1695231407       -3.9553858156       -0.2441649372
  X        -0.7699947627        2.3816265097       -2.8768453658
  X         3.8316734145       -2.0915964607        2.5822139040
  X        -3.8283239753       -0.5071092983        1.9253994006
  X        -4.7802601170        1.2635142297        3.7579339140
  X        -0.3991572908       -3.6229766776        0.3287619476
  X        -1.7280363624        1.0502686317        4.1196531334
  X        -1.0934786404       -2.3298383724        1.7682828125
  X        -3.7065008808       -0.7437897569        1.2857747334
  X        -1.5080382135        4.2209456723        1.5583169236
  X         0.9861198285        3.0058589307       -4.4393349875
  X         3.7235182369        3.2183393767        3.8716302294
  X        -1.5528427079       -1.7151530653        2.0066719556
  X         0.5216534207       -0.2364455108       -4.5257040608
  X        -0.2405911932       -4.1738760311        0.4145489094
  X        -1.3124629557        4.5312821656        1.0144675289
  X         4.0939356895        2.7214716444        3.5724089325
  X        -0.9611228348        1.9647129866       -2.2373411398
  X        -1.2906973961        1.3378343449        4.3024323247
  X         0.4297342773        2.5534473602       -4.7742206227
  X        -3.2255522853       -0.3062619507        1.4726359013
  X         2.4212976372       -3.1084393944        0.3163566225
  X         0.9853269132       -0.3299012704       -4.2595261339
  X         0.2653250002       -3.7116517529        0.3263486040
  X        -1.2135198464        0.6715480319        4.3798011836
  X         0.5480424984        2.5996941487       -4.1100352481
  X         3.8724422363        1.2500212694       -1.4870286342
  X         1.0370123220       -0.3640281027       -4.9452594068
  X        -0.9042662946       -1.8381294729        2.1805439006
  X         1.3157639686        4.1657125435       -1.0821287823
  X        -1.6415171734        3.9195753265        1.1072392387
  X         2.5118018000       -2.8236628942        0.8965641550
  X         0.9419312988        2.3143007808       -4.4026217906
  X         1.9268171151       -3.0269542060        0.5694487368
  X         0.9219201118        0.2984479065       -4.5082890787
  X         3.7194862945        0.5060882284       -1.2817966771
  X         0.6960834410        3.6971394858       -1.3363507318
  X         3.6448105237        2.9999837842        3.1190047880
  X         2.2246255658       -2.4665400825        0.2531559151
  X         0.7689711023        4.0244796023       -0.7649185528
  X         3.2444777612        0.9663678562       -1.4615703687
  X        -1.1919278391        1.0743135291        3.6935082359
  X         3.4728729524        1.0591792580       -0.9676802369
  X         1.0857892177        3.6112726614       -0.7692210368
  X        -1.8750446044        1.2246416734        1.1213252772
  X         0.1413160539       -0.0042749014       -1.0153310891
  X        -1.6252945354        1.8688782165        1.1517033402
  X        -1.4194111643        1.3033517606        1.4227743351
  X        -0.0094393569        0.6471307793       -0.8998612652
  X         0.6427209267        0.5837850617       -1.1239435912
  X        -1.2858381630        1.2818151973        0.7732612614
  X         1.4622963672       -0.0614451041        2.7086258353
  X         0.3353078997        0.4169527914       -0.5308147229
  X         0.8817338768       -0.2411289231        2.3863272688
  X         1.0387533943        0.2111375833        2.8784029471
  X         2.0755320907        2.7003355175        1.5986557378
  X         1.6573658058        2.7211042117        1.0511545086
  X         2.3205626885        2.2925862581        1.1025930269
  X         1.2989989087        0.4471778090        2.3119334384
  X         1.7790304161        2.2353934251        1.5074412223
