     224
 Particles+Wannier centers. Iteration:1_0
  O         0.8050005000        0.7000000000        3.2350000000
  H         1.4750005000        1.2800000000        2.8650000000
  H         0.8550005000       -0.0900000000        2.7150000000
  O         0.4050005000        0.7500000000       -4.1350000000
  H         0.6350005000        0.8900000000        5.0450000000
  H         0.3150005000        1.6300000000       -3.7750000000
  O        -3.6249995000        3.2200000000       -4.4850000000
  H        -4.3449995000        3.0300000000        5.0250000000
  H        -3.8849995000        4.0300000000       -4.0450000000
  O        -3.3149995000       -0.8200000000        1.2850000000
  H        -2.8449995000       -0.0800000000        0.8950000000
  H        -3.8249995000       -0.4300010000        1.9850000000
  O         0.3350005000        3.4500000000       -3.5850000000
  H         1.1750005000        3.8700000000       -3.7750000000
  H        -0.2749995000        3.8600000000       -4.1950000000
  O         0.2350005000       -3.1900000000        4.3450000000
  H        -0.1449995000       -2.7200000000        3.6050000000
  H        -0.3449995000       -3.9400000000        4.4750000000
  O        -3.4649995000       -4.0600000000        1.1650000000
  H        -3.8549995000       -3.8100000000        1.9950000000
  H        -2.9949995000       -3.2800000000        0.8650000000
  O        -0.5949995000        0.6700000000       -1.1950000000
  H         0.3449995000        0.8300000000       -1.0350000000
  H        -0.6450005000       -0.2700000000       -1.3850000000
  O        -1.1149995000        4.2500000000        4.2250000000
  H        -0.8249995000        4.4700000000        3.3350000000
  H        -1.6349995000        3.4600000000        4.1150000000
  O         2.9250005000       -3.0100000000        4.5050000000
  H         1.9850005000       -3.2100000000        4.4450000000
  H         2.9550005000       -2.1700000000        4.9550000000
  O        -1.2249995000       -2.2300000000        2.2350000000
  H        -2.1549995000       -2.0400000000        2.1850000000
  H        -0.9750005000       -2.4500000000        1.3350000000
  O         2.0650005000       -3.2900000000        0.9050000000
  H         2.8750005000       -2.7800000000        0.8450000000
  H         1.9650005000       -3.4600000000        1.8450000000
  O        -1.9449995000        1.9400000000        3.3350000000
  H        -1.9849995000        2.0500000000        2.3850000000
  H        -1.1049995000        1.5200000000        3.4950000000
  O        -4.7649995000       -1.6900000000       -3.1250000000
  H         4.5450005000       -1.3700000000       -3.5550000000
  H        -4.3249995000       -0.8900000000       -2.8250000000
  O        -4.3849995000        0.4100000000        3.6950000000
  H        -3.5549995000        0.8300000000        3.9150000000
  H        -5.0449995000        0.9900000000        4.0650000000
  O        -3.3449995000       -4.1500000000       -3.7050000000
  H        -2.7349995000       -3.9900000000       -4.4250000000
  H        -3.9049995000       -3.3800000000       -3.6950000000
  O        -2.2049995000        2.0500000000        0.6650000000
  H        -2.1949995000        3.0000000000        0.7050000000
  H        -1.4249995000        1.8200000000        0.1650000000
  O         2.5750005000        2.2400000000        1.6950000000
  H         2.9850005000        1.5300000000        1.2050000000
  H         1.9650005000        2.6500000000        1.0850000000
  O         4.3450005000        2.1400000000       -1.8450010000
  H        -5.0449995000        1.9800000000       -2.4650000000
  H         4.5250005000        3.0100000000       -1.4850000000
  O         2.9150005000       -0.4200000000       -4.2250000000
  H         1.9950005000       -0.2000000000       -4.1250000000
  H         3.2650005000        0.2700000000       -4.7850000000
  O        -0.7049995000       -2.9900000000       -0.6050000000
  H        -1.1049995000       -2.5700000000       -1.3650000000
  H         0.1950005000       -3.1900000000       -0.8850000000
  O        -4.6649995000        4.8100000000       -1.5150010000
  H        -4.2149995000       -4.9200000000       -2.2750000000
  H        -4.2049995000       -4.9100000000       -0.7650010000
  O         4.4250005000       -2.0300000000       -0.6250000000
  H        -4.8349995000       -2.0600000000       -0.1650000000
  H         4.6650005000       -2.0100000000       -1.5550010000
  O        -3.2749995000        0.8200000000       -2.9750000000
  H        -2.4749995000        0.8400000000       -2.4550000000
  H        -3.2849995000        1.6700000000       -3.4250000000
  O        -0.8249995000       -1.7999990000       -3.0050000000
  H        -0.8549995000       -0.9300000000       -3.4050000000
  H        -0.2450005000       -2.3000000000       -3.5650000000
  O         1.3650005000        3.2400000000       -0.7149990000
  H         2.0550005000        3.8600000000       -0.9650000000
  H         0.8250005000        3.1400000000       -1.5050000000
  O         3.9550005000        2.3800000000        4.6150000000
  H         3.4650005000        3.0600000000       -5.0250000000
  H         3.6050005000        2.3800000000        3.7250000000
  O         2.8050005000       -4.8100000000       -1.6850000000
  H         3.7550005000       -4.8900000000       -1.6350000000
  H         2.5550005000       -4.3500000000       -0.8950000000
  O        -4.6149995000       -2.9700000000        3.6550000000
  H        -4.2849995000       -2.1700000000        4.0750000000
  H         4.5750005000       -3.0300000000        3.9350000000
  O         2.4750005000        0.5000000000       -0.7149990000
  H         3.1050005000       -0.2200000000       -0.6550000000
  H         2.9150005000        1.1600000000       -1.2450000000
  O         2.9050005000        4.6700000000       -4.4550000000
  H         2.9850005000        4.9600000000       -3.5450000000
  H         3.1450005000       -4.6700000000       -4.9750000000
  O        -1.0549995000        4.6100000000        1.1350000000
  H        -0.5949995000       -4.9600000000        0.4850000000
  H        -1.7249995000       -4.9000000000        1.4850000000
  X        -3.6392034735       -3.7485234167       -3.7143117947
  X        -3.5248228803       -4.4116961807       -3.7703777223
  X        -3.1970155278       -4.1464597008       -3.4383712359
  X        -3.0230702970       -4.0612051805       -4.0865386363
  X        -4.8764367437       -1.8288359758       -2.8522296589
  X        -4.4297347399        5.0048637480       -1.9086899565
  X        -4.4466147227       -2.5386746849        3.8814255947
  X        -4.5827244549       -1.8621521596       -3.3241515220
  X        -3.7785680821        3.6412541456       -4.2517580988
  X        -4.5392455698       -1.2723830522       -2.9788415521
  X         4.9286079961       -1.5166370830       -3.3574121325
  X        -4.4636421983       -3.2034824768        3.7788310310
  X         5.0146080038       -2.9891782253        3.8020867616
  X        -4.9801796180        4.9247275326       -1.5167353162
  X        -4.4194984591        5.0156111680       -1.1257519833
  X        -3.3764493718        3.2834686316       -4.6400503908
  X        -3.6233515584        2.9744365677       -4.2630848780
  X        -4.6007857867       -2.9318701239        3.3399760233
  X        -4.0037323316        3.1321032068       -4.7996625245
  X        -4.6249161116        4.5023034824       -1.5129132346
  X        -1.0969939636       -1.9243261448       -3.0332765218
  X         3.0381556277       -5.0411978785       -4.7219433710
  X         3.0603962170       -3.2408255505        4.6886091764
  X        -3.6680177981       -3.9179100926        1.5926888758
  X        -3.6846157749       -4.1258469567        0.9510090673
  X        -3.2440533544        0.5991959668       -3.1802448224
  X         2.9658971141        4.8263980037       -3.9836316384
  X        -0.5052285451       -2.0597007803       -3.3013204887
  X         2.5986154122        4.6323146196       -4.4854311101
  X        -3.2205371690       -3.6317571178        1.0144940150
  X        -3.2734242782        1.2605124781       -3.2011996303
  X         4.5526098998       -2.0294033469       -1.0978261198
  X        -3.2376961417       -4.2670678605        1.2302755631
  X        -0.7056864830       -1.7759972473       -2.7084232231
  X         3.2894038220       -4.8375708546       -1.6519185638
  X        -1.2843412975        4.4990191142        4.3148172709
  X        -3.5206323634        0.8112367993       -2.7824240322
  X         3.0477187229       -2.9672237807        4.2171105526
  X        -0.0714153612       -3.5871715429        4.4006657254
  X         2.9360561750       -2.5776657185        4.7456114144
  X         3.0986552405        4.4048099825       -4.5155497983
  X        -2.8470767266        0.8388642690       -2.6972851468
  X        -0.8342185345       -1.3447083391       -3.2173975706
  X         4.8821077107       -2.0487545135       -0.3922969888
  X         2.7240277577       -4.6655224886       -1.9520688419
  X        -0.9103501599       -2.7733706096       -0.9983684318
  X         0.1978572535       -3.0157606744        4.5962446940
  X         2.4509747351       -3.1049760191        4.4700895475
  X         4.2688212658       -2.2917548907       -0.5549400770
  X         0.5438761788       -3.2907301187        4.2769138604
  X        -0.8572014936        4.1798483001        4.4040102345
  X         2.6962240925        4.9880670852       -1.6311640388
  X        -1.3835390247        3.8598154400        4.1661573018
  X        -4.4010352639        0.1374419363        3.8421626164
  X         0.0189820363        3.6733781503       -3.8956328561
  X         4.7211304242        2.0692153504       -2.1785947981
  X         2.9410953661       -0.7091994110       -4.3923584154
  X         0.0425492025       -2.9543083414        3.9625346191
  X        -0.8360474343       -3.2648888487       -0.5613928364
  X         2.6796260302       -4.5539734555       -1.2766679302
  X         4.2631583898        2.4690347906        4.5966126509
  X         4.2987756798       -1.7477077832       -0.5610332291
  X        -0.2245331093       -3.0867111166       -0.7651248838
  X        -1.7155894568       -2.1537860762        2.2092442083
  X        -3.9566281853        0.6352833025        3.8224715134
  X        -0.9570223011        4.3548358592        3.7522956048
  X         0.7760085927        3.6729425721       -3.6939315478
  X         4.4445809646        2.6015101966       -1.6607969572
  X        -4.7329618845        0.7182276239        3.8879087302
  X         0.2664131434        3.5204809084       -3.2877990812
  X         3.0611334117       -0.4016380065       -3.9562672189
  X        -3.5079952228       -0.9316520821        1.0694273813
  X         3.6966211469        2.7164501757        4.8463974291
  X         4.0722671143        2.1509546476       -1.9928589352
  X        -0.6926416826       -2.7880751067       -0.3585210319
  X         3.0916915656       -0.0516185320       -4.5301394203
  X        -1.1529098049       -2.4808548758        2.4343648497
  X         3.8944123705        2.0851821946        4.7256502150
  X        -1.3972592202        4.9293456602        1.3143524122
  X        -4.4045069915        0.4127398265        3.3761840957
  X         0.3575693917        3.1362036849       -3.6666531042
  X        -3.1033668137       -1.0229555655        1.4221775103
  X        -1.1083794457       -2.3516116655        1.7614140943
  X         2.4429153367       -0.3077299014       -4.1794685583
  X        -3.5798943352       -0.6086800590        1.6462996731
  X         4.3751501152        1.9371371446       -1.6198822001
  X        -1.9252131185        2.2391280432        3.4744845708
  X        -0.8175826924        4.8966149505        0.7890347946
  X        -1.0940125019       -1.9665701180        2.2915721001
  X        -3.0647786146       -0.4271019009        1.0867966740
  X         3.7650540331        2.3907421643        4.1430484818
  X        -1.2099892063        4.3741320143        0.9916604927
  X         0.1263486869        0.6007873209       -4.1236415030
  X         2.4934454124       -3.0195131819        0.8897201633
  X        -2.1787882389        1.7359181923        3.4240960788
  X         0.6697128992        0.6042427525       -4.0128571277
  X         2.1203803331       -3.5634948362        0.7602013905
  X         0.3643705279        1.2037269935       -3.9515718224
  X        -0.8569404457        4.5519303722        1.3697878887
  X         2.0217750580       -3.3790742187        1.4120576041
  X        -1.9534837823        1.9952068410        2.8514260877
  X        -2.2049035093        2.5481647422        0.6713399253
  X         0.5183111654        0.8383366233       -4.6135299071
  X         1.8353747008       -3.1127700544        0.8240107351
  X        -0.6146762298        0.1649204728       -1.2852941260
  X        -1.4995211470        1.7170744012        3.4106706573
  X        -2.4534353478        1.9379927493        0.5218871704
  X        -0.6833438099        0.8127166108       -1.4548223229
  X        -2.1457635170        1.9668449771        0.9783993888
  X         1.7225791542        3.5525367340       -0.8538181257
  X        -0.7468826915        0.7306252161       -0.9186375435
  X         1.0839759971        3.1925850276       -1.1354983901
  X        -1.7897359302        1.9470380165        0.4076219389
  X         2.7027477583        0.8321604255       -0.9975584941
  X         1.4883577226        2.9673769430       -0.6487182940
  X        -0.1045800293        0.7440172394       -1.1208250240
  X         2.8100747227        0.1160052687       -0.7023329505
  X         2.1973542438        0.4087665681       -0.8397087612
  X         1.1980240284        3.3780391557       -0.5003343426
  X         0.8765730379        0.6357241171        3.5438441807
  X         2.4816935504        0.6136615673       -0.4246269550
  X         0.5274718080        0.8257980648        3.1766097440
  X         2.7918397027        2.4385544727        1.7768462262
  X         0.8450090428        0.2735160708        2.9571809559
  X         2.3987076585        2.0941781934        1.9368664276
  X         2.7862656194        1.8673391338        1.4312750252
  X         1.1546430076        0.9897723141        3.0439013702
  X         2.2602941846        2.4463065355        1.3765630052
     224
 Particles+Wannier centers. Iteration:1_200
  O         0.7331462027        0.5563453648        3.1304677709
  H         1.2837642976        1.1760724511        2.7107845104
  H         0.2701119391        0.0778520533        2.4699939586
  O         0.7787628400        0.5353077335       -4.0982819825
  H         0.7267185082        0.6991338973       -5.0477674454
  H         0.6454547583        1.4174236077       -3.6620290112
  O        -3.4611000175        3.0621066050       -4.5486247331
  H        -4.3284743993        3.1125942335       -5.0138327070
  H        -3.4431827370        3.9574586911       -4.1342446724
  O        -3.3025093092       -0.4866717955        1.3037036070
  H        -2.8561445721        0.2564094569        0.8383698102
  H        -3.9669303649       -0.0344236996        1.8498820625
  O         0.0219212268        3.4148294203       -3.3923837976
  H         0.6407326480        3.8477734173       -4.0222208994
  H        -0.8543788711        3.8430048706       -3.6688550432
  O         0.3040179486       -3.2118309715        4.3178281681
  H        -0.2592220480       -2.6527272653        3.7834988922
  H        -0.0501779174       -4.1335332773        4.1390023970
  O        -3.5130647103       -4.0635731873        0.9543551479
  H        -3.9583958842       -3.6810919028        1.7761853256
  H        -3.1273203942       -3.2815930714        0.5317780407
  O        -0.2502833517        0.6873365906       -1.1750831337
  H         0.6902292751        0.4938583514       -1.0097568483
  H        -0.4918715947       -0.2450330496       -1.2943862318
  O        -1.0911578122        4.3133594110        4.0692225208
  H        -1.0909554254        4.3134353859        3.0713572898
  H        -1.7578827576        3.5759093072        4.3772187024
  O         3.0836686066       -2.8329725058        4.5184811588
  H         2.1331481732       -2.8047849190        4.3254805260
  H         3.1280123671       -1.9577560074       -5.0282742379
  O        -1.1717231344       -1.9751656155        2.3217411788
  H        -2.0281547798       -1.4580629120        2.0366568670
  H        -0.7586816136       -2.0939555751        1.4690860673
  O         2.0586428610       -3.3120584115        0.6606019683
  H         2.8288632250       -2.7920561686        0.2188775921
  H         2.0701601098       -3.1392554862        1.6531007309
  O        -2.0204797462        1.0766854675        3.2667717663
  H        -2.0930406367        1.6923790058        2.5263900332
  H        -1.1099196556        1.1083138316        3.5719315358
  O        -4.7574606679       -1.7198166113       -3.3934682059
  H         4.5622987427       -1.1903716407       -3.6913868802
  H        -4.0658954546       -0.9772746488       -3.4661960957
  O        -4.4209985828        0.1971711428        3.9116652807
  H        -3.5307038084        0.4554282591        3.7389312714
  H        -4.9092755913        1.0301563796        4.0265114524
  O        -3.3315605824       -4.1011049520       -4.1161466872
  H        -3.2525048116       -4.3847109815        5.0327845071
  H        -3.8284153649       -3.2346968961       -4.1907149245
  O        -2.1851527331        2.0537678742        0.6205801306
  H        -2.0564908353        3.0452973503        0.6997634064
  H        -1.4395851260        1.8417094403        0.0545717819
  O         2.5105758139        2.3979493559        1.7173840525
  H         2.6795774806        1.7113650746        1.0483208658
  H         1.9451523539        3.1786512057        1.3646045753
  O         4.3285108201        2.0890878526       -1.8502406440
  H        -4.8474456840        1.9409529959       -2.1086975455
  H         4.1585615737        3.0271126459       -1.8400548704
  O         3.1942809490       -0.3955502095       -4.2019454873
  H         2.2906474329       -0.0335613767       -4.0286771345
  H         3.6020121291        0.1281456569       -4.9043504987
  O        -0.8415370315       -2.9992539132       -0.3652958926
  H        -1.0529302498       -2.7714035004       -1.3064342737
  H         0.1418503116       -3.0864524288       -0.4465567278
  O        -4.6552091602       -4.9079758392       -1.3356028902
  H        -4.2041812358       -4.2775515462       -1.9081582458
  H        -4.3889181995       -4.7745025578       -0.3822246385
  O         4.4452390752       -1.8034571276       -0.6279604205
  H        -4.8583411966       -1.4979393041       -0.1073790447
  H         4.7336338623       -1.7290780670       -1.6156967103
  O        -3.3069919016        1.0417205852       -2.9022130430
  H        -2.5416548484        0.8466211733       -2.3580841882
  H        -3.0214853164        1.6477674377       -3.6380460184
  O        -0.8354365696       -1.7549300400       -3.2829690059
  H        -0.6965745132       -0.9235350883       -3.8178730652
  H        -0.5104451904       -2.4151088803       -3.9164452832
  O         0.8573520954        3.2043210031       -0.5515914514
  H         1.6471601224        3.7630376558       -0.7285513351
  H         0.3778573432        3.0352695467       -1.3874659555
  O         3.9803573296        2.5085073729        4.0830099703
  H         3.6798819646        3.1554302087        4.7656436172
  H         3.5493176704        2.7237030769        3.2266338845
  O         2.8067581335       -5.0304442071       -1.7566777785
  H         3.7534274288       -4.8829201677       -1.6985843460
  H         2.3787580761       -4.1914138127       -1.8676936705
  O        -4.5152104907       -2.9605465140        3.1470489107
  H        -4.1889934386       -2.1603535598        3.6297507997
  H         4.6249472688       -2.9815313993        3.5045229347
  O         2.4047483276        0.2352140356       -0.7152298684
  H         3.1797015607       -0.3567182426       -0.4883618405
  H         2.9287510572        0.9764589264       -1.1822691300
  O         2.6434101143        4.6686949634       -4.5795262767
  H         2.9424529682        4.6884436695       -3.6735174447
  H         2.9523186600       -4.5431773230       -4.8975205509
  O        -1.0421241797        4.4976750352        1.3019796563
  H        -0.2080715481        4.5966450811        0.8188832803
  H        -1.7288550289       -4.9648743606        1.0023343407
  X        -3.5888536254       -3.6648842058       -4.1633427696
  X        -3.5140626722       -4.3218826556       -3.9719712420
  X        -3.0507929695       -4.0422213188       -4.0247035404
  X        -3.2987786763       -4.2476349862       -4.6189838102
  X        -4.6789398653       -1.9700607818       -3.5921181050
  X        -4.4056319533       -4.5587425278       -1.6189570447
  X        -4.8086015846       -1.7650770162       -3.0638943073
  X        -4.3972893063       -1.3468028855       -3.4317162677
  X        -3.4550073772        3.5202133552       -4.3229747239
  X         4.9530785836       -1.4673980870       -3.5543265621
  X        -4.5583171101        4.9168287069       -1.4206114757
  X        -4.3727613794       -3.2038673529        3.2682476169
  X        -4.9878621678       -4.8499517852       -1.3734702559
  X        -3.4546812026        2.8224363777       -4.3293359212
  X        -4.5195360385       -4.8239403944       -0.8657111559
  X        -3.9150041385        3.0874573044       -4.7830885070
  X        -4.3397701937       -2.5389295339        3.3919428924
  X        -4.4989714911       -2.9256020114        2.8190395086
  X        -1.1373236533       -1.7992188531       -3.2568993949
  X        -3.2391291418        3.0808490911       -4.7720290527
  X         3.2750111423       -2.8049428039        4.2433584560
  X        -4.9974921845       -2.9689871505        3.3117876625
  X        -3.7402197052       -4.1917241480        0.7403757256
  X         2.8011893239       -4.9820658319       -4.7399339241
  X        -0.6596183490       -2.1026152664       -3.6119853787
  X        -3.7304176465       -3.8775092310        1.3519859711
  X        -3.3186365035       -3.6382264358        0.7312539438
  X        -3.3930839806        0.7627022106       -3.0255950046
  X        -3.2592493270       -4.2424828245        1.0364066316
  X        -0.6516623905       -1.7469732857       -3.0263524206
  X        -3.1355212456        1.3350013198       -3.2684745706
  X         2.8057821973        4.6824454897       -4.1035776511
  X         3.2803881250       -4.9344029902       -1.7220921703
  X         3.1185524505       -3.0947351581        4.7147161350
  X         2.3292085763        4.6585242116       -4.5727568661
  X         3.1151679246       -2.4105883645        4.7932397940
  X         4.5955893910       -1.7666666566       -1.1141156027
  X        -3.5153288772        1.2080369282       -2.7246621850
  X        -1.2031966760        4.5920477249        4.1578589572
  X         0.2342892531       -3.1513090478        4.6212752739
  X        -0.7662814415       -1.3239506237       -3.5605340117
  X        -2.8869385155        0.9492729684       -2.6162473289
  X         2.5908555445       -4.5658782272       -1.8105293686
  X         2.8196424796        4.4321090035       -4.7336631797
  X        -4.4414888007        0.0254771907        4.1662833936
  X         2.6025673233       -2.8147373351        4.4006384687
  X        -0.9538140133       -2.8788853943       -0.8557602439
  X         2.7726292381        4.9294240657       -2.0403985430
  X        -0.4402138086        3.6349101653       -3.5377028884
  X         0.6213658206       -3.1801513047        4.2180157306
  X         4.3753664706       -2.0996095909       -0.5547510134
  X        -1.4307760408        3.9358799123        4.2160177177
  X         3.1568193090       -0.7043968363       -4.3453401416
  X         0.1286219361       -3.6824135578        4.2130531679
  X         4.8687969520       -1.6501862739       -0.3668618285
  X        -0.8071269334        4.2332448070        4.1592604521
  X        -4.6639726818        0.6355544438        3.9766749166
  X         4.8075498125        2.0330784455       -1.9781499455
  X         0.0119467121       -2.9251671793        4.0397911745
  X        -0.9571634694       -3.2762138150       -0.3048876589
  X        -3.9649173996        0.3395302233        3.8364550369
  X         2.6956529257        4.9244155336       -1.4979113435
  X         0.3417498659        3.6443588248       -3.7161009721
  X         3.3976931220       -0.3950535053       -3.9541521972
  X        -0.8928907070       -2.7442830279       -0.1852756783
  X         0.0124911355        3.1043293143       -3.4719666411
  X         3.3952509357       -0.1068586187       -4.5744879686
  X         4.2170591582       -1.5691175440       -0.5787611727
  X         3.8204472765        2.8424234318        4.4277693048
  X        -1.1050328372        4.2954664259        3.5692845233
  X         4.2539242183        2.5988202523       -1.8495476964
  X        -4.5176788854        0.0840666614        3.6352349430
  X        -1.2374113066       -2.2526662837        2.4277127944
  X         4.1494711884        1.9728692875       -2.0668987698
  X         0.0860880225        3.5004406650       -3.0931317078
  X        -0.3291034493       -3.0461394274       -0.4134618326
  X         2.7637301109       -0.2102609913       -4.1150325437
  X        -3.4648714189       -0.6547572183        1.0814441670
  X        -1.3679883992        4.8392180938        1.1377114946
  X         4.3015190452        2.5482712068        4.0593192391
  X        -1.5947448053       -1.7278975234        2.1857772932
  X         3.8888175609        2.2185968468        4.1645621117
  X        -0.9858167720       -1.7844757935        2.4965210570
  X         4.2811093542        1.9868573425       -1.5581289361
  X        -3.0793429385       -0.6463111229        1.4978361893
  X        -2.2238547828        1.1605913822        3.4976234858
  X        -3.6441517515       -0.2432573749        1.5867075763
  X        -0.9975571678        4.5320483264        1.6309250389
  X         2.4532420537       -3.0372912196        0.4573806099
  X         0.5332118692        0.3522041478       -4.0284055195
  X        -1.1611520700        4.2135392443        1.2056995153
  X        -3.0738514553       -0.1034959358        1.0651856494
  X        -0.9484861588       -2.0316529563        1.8691018388
  X         2.1229506389       -3.6062011718        0.6344103462
  X         3.7609053645        2.6411810179        3.6535801169
  X         1.1004628243        0.4270442193       -4.0409124369
  X        -2.0563929308        0.8051287739        3.1547304654
  X         2.0804607727       -3.2019727301        1.1824071262
  X         0.7160568762        0.9937490540       -3.8856289519
  X        -1.5444895633        1.1106624500        3.4286417067
  X        -0.6090239195        4.5744083355        1.0489930391
  X         1.7822092759       -3.1960262642        0.5467879122
  X        -2.1388247018        2.5548859072        0.6506358450
  X         0.7513618677        0.6385857075       -4.5884826686
  X        -2.0459224390        1.4085631434        2.8896770469
  X        -2.1225581144        1.9374245210        0.9171104986
  X        -0.3921402430        0.1891519870       -1.2354839175
  X        -2.4506315558        1.9687376895        0.4773249986
  X         0.6224845168        3.1330801272       -0.9923048247
  X        -0.2821872902        0.8229960567       -1.4482772182
  X        -1.7924268799        1.9447846029        0.3274393361
  X         2.7904241862       -0.0747410425       -0.6065235985
  X         1.2663928454        3.4906443810       -0.6642971229
  X        -0.3947437529        0.7980219698       -0.9048922542
  X         0.6761195034        3.3813867352       -0.3621179670
  X         2.6597099240        0.6083265100       -0.9563666301
  X         2.1861197169        0.1072654500       -0.9006655000
  X         0.2262089148        0.6015750804       -1.0904512723
  X         0.5108426511        0.7156090248        3.2993210897
  X         0.9583351446        2.9398899345       -0.4488634692
  X         2.3209300895        0.3632872608       -0.4407724514
  X         2.7890802761        2.5098358441        1.8369061790
  X         0.9074924579        0.3655673232        3.2819125781
  X         0.4970348764        0.3100121699        2.7653448884
  X         2.2299788749        2.7922473272        1.5120850458
  X         2.3175291776        2.2532736920        1.9233868371
  X         1.0147270743        0.8817101957        2.8955603581
  X         2.5924415598        2.0632373859        1.3490762161
     224
 Particles+Wannier centers. Iteration:1_400
  O         0.9758337259        0.3767780556        3.3130133098
  H         1.5365352837        1.0720086443        2.8409327500
  H         0.4934734265       -0.1811128317        2.6203537172
  O         0.9722359736        0.4921940977       -4.1770697935
  H         1.0254034495        0.5872075003        4.9381982618
  H         0.6827623276        1.3674815335       -3.8500865039
  O        -3.1865953534        3.3247209935       -4.6264679466
  H        -3.9188553049        3.0161664120        4.9101890840
  H        -3.4610945497        4.1837328466       -4.2437464726
  O        -3.5727059822       -0.6511291531        1.2189208177
  H        -2.9943511784        0.1416318559        1.0550783676