     224
 i =         1, time =     0.000, E =        0.0000000000
 O  0.975833714      0.376778066       3.31301332    
 H   1.53653526       1.07200861       2.84093285    
 H  0.493473440     -0.181112826       2.62035370    
 O  0.972235978      0.492194086      -4.17706966    
 H   1.02540350      0.587207496       4.93819809    
 H  0.682762325       1.36748159      -3.85008645    
 O  -3.18659544       3.32472110      -4.62646818    
 H  -3.91885519       3.01616645       4.91018915    
 H  -3.46109462       4.18373299      -4.24374628    
 O  -3.57270598     -0.651129127       1.21892083    
 H  -2.99435115      0.141631857       1.05507839    
 H  -4.14596272     -0.388686597       1.97462392    
 O   5.64083122E-02   3.41052222      -3.65320396    
 H  0.785212457       4.03154135      -3.96406364    
 H -0.662931621       3.35577035      -4.34121990    
 O  0.294249415      -3.18944049       4.21508551    
 H  -6.40480071E-02  -2.79227328       3.38600039    
 H -0.121717945      -4.08088732       4.32075882    
 O  -3.41303539      -4.08980560      0.738653898    
 H  -3.73070621      -3.90214300       1.66969609    
 H  -3.17368746      -3.22319317      0.376979083    
 O -0.245835662      0.543014109      -1.27883375    
 H  0.701463759      0.840063632      -1.06569350    
 H -0.283161819     -0.402702689      -1.51627040    
 O  -1.00710917       4.32187414       3.91057086    
 H -0.860112607       4.17652893       2.95392323    
 H  -1.96754277       4.03798676       3.97915649    
 O   2.96138215      -2.93841076       4.46076584    
 H   1.99998486      -2.79795504       4.29919052    
 H   3.25301027      -2.19390321       4.96104908    
 O -0.435813338      -1.66907883       1.82145810    
 H  -1.41268957      -1.63283455       1.81373584    
 H -0.183511510      -2.08772683      0.981286228    
 O   2.32903314      -3.30729771      0.230004653    
 H   3.16878390      -2.82680511      0.169164598    
 H   2.29546094      -3.68770194       1.12673616    
 O  -2.00680590      0.972620249       3.74491525    
 H  -1.93818521       1.73713541       3.16124153    
 H  -1.05750513      0.766124725       3.95885682    
 O  -4.67476606      -1.77047789      -3.08929873    
 H   4.79553127      -1.22276819      -3.62366509    
 H  -3.81448174      -1.32408524      -3.30053473    
 O  -4.43733501     -0.279829353       3.89122987    
 H  -3.46267128      -1.72909461E-02   4.08850241    
 H  -5.02142763      0.477982461       4.13362885    
 O  -3.39774847      -4.09139872      -4.22551680    
 H  -3.28379297      -3.95087695       4.90229177    
 H  -4.08582926      -3.47526598      -3.94880152    
 O  -2.07029724       1.55517566      0.378325492    
 H  -1.74844337       2.34058452      0.868602097    
 H  -1.24017000       1.22276151     -0.109385453    
 O   2.52270174       2.61533165       1.66335809    
 H   2.35471964       2.02961969      0.834449649    
 H   1.70122552       3.12010932       1.46620941    
 O   4.43773985       2.07152843      -1.95653355    
 H  -4.82697678       1.67986619      -2.29103041    
 H   4.68009281       3.00748968      -1.96299374    
 O   3.50660563     -0.382031739      -4.29515409    
 H   2.61672807     -0.230200991      -3.88984990    
 H   3.71301460      0.434979141      -4.75596333    
 O -0.627012610      -2.93819046     -0.747886062    
 H -0.590805352      -2.39990807      -1.59032762    
 H  0.259047717      -3.28696823     -0.581540763    
 O  -4.65536833      -5.04796696      -1.78633261    
 H  -3.89760733      -4.87681150      -2.34723735    
 H  -4.41435480      -4.70009375     -0.893253744    
 O   4.46418142      -1.64341772     -0.449708223    
 H  -4.83791304      -1.39451754      0.110499308    
 H   4.79304361      -1.64140403      -1.36371589    
 O  -3.14742041       1.06019378      -2.65362096    
 H  -2.74172616       1.39190435      -1.84217989    
 H  -2.74072671       1.60627568      -3.35360003    
 O  -1.09254014      -1.75772285      -3.40406489    
 H -0.602182984     -0.899329185      -3.46444225    
 H -0.731855989      -2.38523436      -4.01782656    
 O  0.731964588       3.48851132     -0.912255406    
 H   1.59257746       3.89480114      -1.20156789    
 H  0.181590512       3.70367360      -1.68603396    
 O   4.11205196       2.41665864       4.47737455    
 H   3.59933996       3.07831502       5.04661322    
 H   3.67293334       2.48349357       3.59772182    
 O   2.64659023       4.87686539      -1.86633027    
 H   3.61348104      -5.01998138      -1.94419003    
 H   2.42615914      -4.44011116      -1.32221210    
 O  -4.53856945      -2.98241162       3.09348392    
 H  -4.28984118      -2.04837561       3.24251366    
 H   4.65236139      -3.10193133       3.29737163    
 O   2.42908001      0.798920751     -0.851779640    
 H   2.76870680      -7.64572248E-02 -0.537868500    
 H   3.10395360       1.28538144      -1.39780653    
 O   2.76443219       4.64641571      -4.66871452    
 H   2.78008151       4.89311647      -3.68852925    
 H   2.83136749      -4.53036118       5.02606583    
 O -0.961366534       4.31914377       1.21671367    
 H -0.277269393       4.03072357      0.471150905    
 H  -1.62704289       4.88311100      0.748600483    
 X  -3.76495576      -3.77830458      -4.09878445    
 X  -3.14305115      -4.00314379      -4.09259510    
 X  -3.49893737      -4.40984964      -4.18164825    
 X  -3.34777904      -4.01451683      -4.73475313    
 X  -4.65775061      -2.07420206      -3.21695638    
 X  -4.92401505      -4.89552975      -1.89503741    
 X  -4.22427702      -1.53635514      -3.19937396    
 X  -4.74201012      -1.72594178      -2.76733470    
 X  -3.34840679       3.75331783      -4.42620182    
 X  -4.25275517      -4.94594383      -2.07640481    
 X  -4.67313051       4.74123526      -1.76147938    
 X  -4.98527956      -1.49948430      -3.35859013    
 X  -4.52490139      -4.86479187      -1.33283734    
 X  -4.38538170      -3.14134693       3.30946970    
 X  -3.13275409       3.10834599      -4.40639257    
 X  -1.38354838      -1.70841026      -3.47378683    
 X  -3.57868552       3.17555666      -4.91757059    
 X  -4.47914886      -3.06802559       2.78059363    
 X  -2.95483017       3.40556836      -4.83016348    
 X  -4.42891693      -2.49615765       3.16440749    
 X -0.883666098      -2.07623172      -3.73380494    
 X  -3.66034818      -4.19479084      0.559074223    
 X  -5.02356720      -3.02481031       3.19462180    
 X   2.80908418      -5.00575542      -4.87679863    
 X  -1.01482010      -1.86573708      -3.09909916    
 X   2.97641826      -3.22481871       4.64317656    
 X  -3.56861973      -3.98990130       1.20764291    
 X  -3.29016352      -3.62018323      0.560832918    
 X  -3.13922763      -4.26095963      0.751514971    
 X   2.78612876       4.77446842      -4.17104530    
 X  -3.46665621       1.15561616      -2.63817501    
 X   3.01402235       4.43657303      -4.74234200    
 X   3.10680819      -2.55152249       4.73518991    
 X  -3.07164884      0.764534771      -2.69066429    
 X   3.11733866      -2.93074703       4.18447351    
 X   3.13534617       4.95891333      -1.89639401    
 X -0.828092694      -1.32018793      -3.45600462    
 X  -4.51295042     -0.535433292       4.04864407    
 X   8.86854306E-02  -3.64890122       4.25318575    
 X  -2.92374325       1.34536672      -3.01601481    
 X  -1.51048136       4.18631029       3.93420506    
 X   4.63788080      -1.64579892     -0.914133310    
 X   3.74888706     -0.444944412      -4.07210970    
 X   2.46546412       4.55541420      -4.70509815    
 X -0.582854748      -2.65871119      -1.17563045    
 X   2.48419118      -2.84796429       4.37978506    
 X   2.53616810       4.91794586      -2.16933990    
 X  -3.96108341     -0.137156904       4.00671482    
 X  -2.92662740       1.24041426      -2.23044777    
 X  0.180875465      -3.01975179       4.45087481    
 X  -4.44503641     -0.298809439       3.56489539    
 X  0.624657869      -3.20756102       4.18288565    
 X -0.310124278       3.40355277      -4.01248312    
 X   2.52110720      -4.81761599      -1.59892714    
 X -0.982508063       4.64046812       3.96613097    
 X   4.55902529       2.56882930      -1.96177816    
 X   4.35727453      -1.94912636     -0.367263228    
 X   3.46139860     -0.607008100      -4.51234150    
 X -0.815222740      -3.16581321     -0.791700780    
 X -0.849781573       4.11342907       4.08268261    
 X   3.85072827       2.73255730       4.76149893    
 X   4.87295771      -1.52702200     -0.174044877    
 X   4.85701323       1.86908090      -2.12855411    
 X  0.416520000       3.73890257      -3.83167219    
 X   3.60789537       5.09567298E-02  -4.53791952    
 X  -4.73263025      0.121374063       4.02737427    
 X -0.662794173      -2.73561621     -0.503540933    
 X   9.98178795E-02  -3.00320029       3.78526998    
 X   2.56994653       4.60282755      -1.69395137    
 X  -5.72279096E-02   3.52373910      -3.37366724    
 X   4.19874430       2.02052236      -2.15166879    
 X   3.06830096     -0.298536658      -4.07813263    
 X   4.41172409       2.52085805       4.44725609    
 X  -3.76399136     -0.720004201      0.953242719    
 X -0.150553554      -3.12085271     -0.681398213    
 X   4.25795698      -1.40816402     -0.423908919    
 X   4.06578016       2.10128951       4.57677555    
 X -0.925108373       4.23939085       3.42819738    
 X  0.187290937       3.12153196      -3.65729523    
 X  -2.14297056       1.06125176       4.00195217    
 X  -3.38416505     -0.876976669       1.33131707    
 X   4.39363623       1.98500586      -1.66170073    
 X   2.75673962      -3.06897593      0.215574682    
 X  -1.29318893       4.61184788      0.969816387    
 X  -3.87150335     -0.506560087       1.60378313    
 X  -2.12886667      0.728433371       3.59118056    
 X   2.33892012      -3.55307102       1.43906642E-02
 X   3.87836957       2.45990038       4.01634836    
 X  -3.29347277     -0.247666329       1.14044774    
 X   2.32396865      -3.51004601      0.712020695    
 X  -1.51244426      0.872675896       3.85059667    
 X  0.731834888      0.289451569      -4.11954069    
 X -0.949493051      -1.65366733       1.80318046    
 X -0.822052181       4.47208214       1.45712650    
 X   2.09519243      -3.10809040      0.214325622    
 X   1.27499843      0.422095746      -4.06570530    
 X  -1.11298764       4.04804564       1.28880179    
 X  -1.96648371       1.38162661       3.43012309    
 X  0.441285014       3.61070585      -1.30595255    
 X  0.829103172      0.952459216      -4.01512814    
 X  0.998131335      0.556741655      -4.66821957    
 X -0.360559106      -1.87675428       2.06222463    
 X  -2.25234604       1.66018593      0.159834772    
 X -0.311787695      -1.88146842       1.38692105    
 X -0.243460655       2.90288143E-02  -1.38893175    
 X -0.624320090       4.19155264      0.854325294    
 X   1.15802515       3.69323754      -1.04366803    
 X  0.601035833       3.64982271     -0.620962381    
 X  -2.18079472       1.31783140      0.590414286    
 X -0.322765321      0.679631829      -1.53100610    
 X  -1.89749372       1.96262252      0.646410525    
 X -0.318699360      -1.36307013       1.84263694    
 X -0.443718404      0.598031580     -0.998589933    
 X   2.76268172       1.00915265      -1.13242495    
 X  -1.65395010       1.39915240      0.159013525    
 X  0.761158109       3.18808603     -0.908357561    
 X   2.61706352      0.338180870     -0.708440721    
 X  0.223926902      0.659822524      -1.17308676    
 X   1.16485846      0.201054454       3.46535778    
 X   2.13194442      0.756847620      -1.00176072    
 X  0.755655766      0.532589555       3.49002934    
 X   2.76284409       2.78479815       1.62719631    
 X  0.739998102      0.110432260       2.95384359    
 X   2.41530299      0.969164670     -0.579245031    
 X   2.45649052       2.43171430       1.93101621    
 X   2.08995652       2.89651465       1.57607365    
 X   1.25448263      0.730009854       3.05530953    
 X   2.45192480       2.31061244       1.25429904    
